
     Program BANDS v.7.2 starts on  5Nov2023 at 10:41: 0 

     This program is part of the open-source Quantum ESPRESSO suite
     for quantum simulation of materials; please cite
         "P. Giannozzi et al., J. Phys.:Condens. Matter 21 395502 (2009);
         "P. Giannozzi et al., J. Phys.:Condens. Matter 29 465901 (2017);
         "P. Giannozzi et al., J. Chem. Phys. 152 154105 (2020);
          URL http://www.quantum-espresso.org", 
     in publications or presentations arising from this work. More details at
     http://www.quantum-espresso.org/quote

     Parallel version (MPI), running on     1 processors

     MPI processes distributed on     1 nodes
     89731 MiB available memory on the printing compute node when the environment starts


     Reading xml data from directory:

     ./tmp/magnesium.save/
     file Mg.pbe-n-kjpaw_psl.0.3.0.UPF: wavefunction(s)  3S renormalized

     IMPORTANT: XC functional enforced from input :
     Exchange-correlation= PBE
                           (   1   4   3   4   0   0   0)
     Any further DFT definition will be discarded
     Please, verify this is what you really want


     G-vector sticks info
     --------------------
     sticks:   dense  smooth     PW     G-vecs:    dense   smooth      PW
     Sum         691     313     91                12051     3647     609

     Using Slab Decomposition

     Reading collected, re-writing distributed wavefunctions
     high-symmetry point:  0.0000 0.0000 0.0000   x coordinate   0.0000
     high-symmetry point:  0.3750 0.3750 0.7500   x coordinate   0.9186
     high-symmetry point:  0.5000 0.5000 0.5000   x coordinate   1.2247
     high-symmetry point:  0.6250 0.2500 0.6250   x coordinate   1.5309
     high-symmetry point:  0.5000 0.2500 0.7500   x coordinate   1.7077
     high-symmetry point:  0.7500 0.2500 0.5000   x coordinate   2.0613
     high-symmetry point:  0.5000 0.0000 0.5000   x coordinate   2.4148

     Plottable bands (eV) written to file band.dat.gnu
     Bands written to file band.dat

 **************************************************************************

                    xk=(   0.00000,   0.00000,   0.00000  )

     point group O_h (m-3m) 
     there are 10 classes
     the character table:

       E     8C3   3C2   6C4   6C2'  i     8S6   3s_h  6S4   6s_d 
A_1g   1.00  1.00  1.00  1.00  1.00  1.00  1.00  1.00  1.00  1.00
A_2g   1.00  1.00  1.00 -1.00 -1.00  1.00  1.00  1.00 -1.00 -1.00
E_g    2.00 -1.00  2.00  0.00  0.00  2.00 -1.00  2.00  0.00  0.00
T_1g   3.00  0.00 -1.00  1.00 -1.00  3.00  0.00 -1.00  1.00 -1.00
T_2g   3.00  0.00 -1.00 -1.00  1.00  3.00  0.00 -1.00 -1.00  1.00
A_1u   1.00  1.00  1.00  1.00  1.00 -1.00 -1.00 -1.00 -1.00 -1.00
A_2u   1.00  1.00  1.00 -1.00 -1.00 -1.00 -1.00 -1.00  1.00  1.00
E_u    2.00 -1.00  2.00  0.00  0.00 -2.00  1.00 -2.00  0.00  0.00
T_1u   3.00  0.00 -1.00  1.00 -1.00 -3.00  0.00  1.00 -1.00  1.00
T_2u   3.00  0.00 -1.00 -1.00  1.00 -3.00  0.00  1.00  1.00 -1.00

     the symmetry operations in each class and the name of the first element:

     E        1
                                                                 
     8C3     17   19   20   18   24   21   22   23
                                                                 
     3C2      2    4    3
                                                                 
     6C4      7    8   15   16   12   11
                                                                 
     6C2'     5    6   14   13   10    9
                                                                 
     i       25
                                                                 
     8S6     41   43   44   42   48   45   46   47
                                                                 
     3s_h    26   28   27
                                                                 
     6S4     31   32   39   40   36   35
                                                                 
     6s_d    29   30   38   37   34   33
                                                                 

     Band symmetry, O_h (m-3m)  point group:

     e(  1 -  1) =     -0.84937  eV     1   --> A_1g G_1   G_1+
     e(  2 -  4) =     27.29702  eV     3   --> T_2g G_25' G_5+
     e(  5 -  5) =     30.71946  eV     1   --> A_2u G_2'  G_2-
     e(  6 -  8) =     33.99398  eV     3   --> T_1u G_15  G_4-
     e(  9 - 10) =     36.98169  eV     2   --> E_g  G_12  G_3+
     e( 11 - 11) =     39.61575  eV     1   --> A_1g G_1   G_1+
     e( 12 - 14) =     45.44105  eV     3   --> T_1u G_15  G_4-
     e( 15 - 15) =     65.53552  eV     1   --> A_1g G_1   G_1+
     e( 16 - 16) =     80.91835  eV     1   -->   ?

 **************************************************************************

 **************************************************************************

                    xk=(   0.37500,   0.37500,   0.75000  )

     point group C_s (m)    
     there are  2 classes
     the character table:

       E     s    
A'     1.00  1.00
A''    1.00 -1.00

     the symmetry operations in each class and the name of the first element:

     E        1
                                                                 
     s        2
                                                                 

     Band symmetry, C_s (m)     point group:

     e(  1 -  1) =      7.75138  eV     1   --> A'             
     e(  2 -  2) =      9.45899  eV     1   --> A'             
     e(  3 -  3) =     18.71506  eV     1   --> A'             
     e(  4 -  4) =     24.00866  eV     1   --> A''            
     e(  5 -  5) =     27.43840  eV     1   --> A'             
     e(  6 -  6) =     34.32938  eV     1   --> A''            
     e(  7 -  7) =     36.70157  eV     1   --> A'             
     e(  8 -  8) =     40.62738  eV     1   --> A'             
     e(  9 -  9) =     41.41802  eV     1   --> A'             
     e( 10 - 10) =     43.31313  eV     1   --> A''            
     e( 11 - 11) =     51.75588  eV     1   --> A'             
     e( 12 - 12) =     56.09090  eV     1   --> A''            
     e( 13 - 13) =     58.26143  eV     1   --> A'             
     e( 14 - 14) =     62.49458  eV     1   --> A'             
     e( 15 - 15) =     66.67154  eV     1   --> A''            
     e( 16 - 16) =     67.03628  eV     1   --> A'             

 **************************************************************************

 **************************************************************************

                    xk=(   0.50000,   0.50000,   0.50000  )

     point group D_3d (-3m) 
     there are  6 classes
     the character table:

       E     2C3   3C2'  i     2S6   3s_d 
A_1g   1.00  1.00  1.00  1.00  1.00  1.00
A_2g   1.00  1.00 -1.00  1.00  1.00 -1.00
E_g    2.00 -1.00  0.00  2.00 -1.00  0.00
A_1u   1.00  1.00  1.00 -1.00 -1.00 -1.00
A_2u   1.00  1.00 -1.00 -1.00 -1.00  1.00
E_u    2.00 -1.00  0.00 -2.00  1.00  0.00

     the symmetry operations in each class and the name of the first element:

     E        1
                                                                 
     2C3      5    6
                                                                 
     3C2'     2    4    3
                                                                 
     i        7
                                                                 
     2S6     11   12
                                                                 
     3s_d     8   10    9
                                                                 

     Band symmetry, D_3d (-3m)  point group:

     e(  1 -  1) =      6.88051  eV     1   --> A_2u L_2'      
     e(  2 -  2) =      8.45622  eV     1   --> A_1g L_1       
     e(  3 -  4) =     25.44486  eV     2   --> E_g  L_3       
     e(  5 -  5) =     28.97205  eV     1   --> A_2u L_2'      
     e(  6 -  7) =     31.14578  eV     2   --> E_u  L_3'      
     e(  8 -  8) =     35.90306  eV     1   --> A_1g L_1       
     e(  9 - 10) =     44.62422  eV     2   --> E_g  L_3       
     e( 11 - 12) =     52.93691  eV     2   --> E_u  L_3'      
     e( 13 - 13) =     54.54208  eV     1   --> A_2u L_2'      
     e( 14 - 14) =     61.64046  eV     1   --> A_1g L_1       
     e( 15 - 16) =     68.87799  eV     2   --> E_g  L_3       

 **************************************************************************

 **************************************************************************

                    xk=(   0.62500,   0.25000,   0.62500  )

     point group C_s (m)    
     there are  2 classes
     the character table:

       E     s    
A'     1.00  1.00
A''    1.00 -1.00

     the symmetry operations in each class and the name of the first element:

     E        1
                                                                 
     s        2
                                                                 

     Band symmetry, C_s (m)     point group:

     e(  1 -  1) =      7.75138  eV     1   --> A'             
     e(  2 -  2) =      9.45899  eV     1   --> A'             
     e(  3 -  3) =     18.71506  eV     1   --> A'             
     e(  4 -  4) =     24.00866  eV     1   --> A''            
     e(  5 -  5) =     27.43840  eV     1   --> A'             
     e(  6 -  6) =     34.32938  eV     1   --> A''            
     e(  7 -  7) =     36.70157  eV     1   --> A'             
     e(  8 -  8) =     40.62738  eV     1   --> A'             
     e(  9 -  9) =     41.41802  eV     1   --> A'             
     e( 10 - 10) =     43.31313  eV     1   --> A''            
     e( 11 - 11) =     51.75588  eV     1   --> A'             
     e( 12 - 12) =     56.09090  eV     1   --> A''            
     e( 13 - 13) =     58.26143  eV     1   --> A'             
     e( 14 - 14) =     62.49458  eV     1   --> A'             
     e( 15 - 15) =     66.67154  eV     1   --> A''            
     e( 16 - 16) =     67.03628  eV     1   --> A'             

 **************************************************************************

 **************************************************************************

                    xk=(   0.50000,   0.25000,   0.75000  )

     point group C_2  (2)   
     there are  2 classes
     the character table:

       E     C2   
A      1.00  1.00
B      1.00 -1.00

     the symmetry operations in each class and the name of the first element:

     E        1
                                                                 
     C2       2
                                                                 

     Band symmetry, C_2  (2)    point group:

     e(  1 -  1) =      8.04408  eV     1   --> B              
     e(  2 -  2) =      9.77069  eV     1   --> A              
     e(  3 -  3) =     17.90407  eV     1   --> B              
     e(  4 -  4) =     22.19040  eV     1   --> A              
     e(  5 -  5) =     30.47589  eV     1   --> A              
     e(  6 -  6) =     31.33607  eV     1   --> B              
     e(  7 -  7) =     39.76202  eV     1   --> B              
     e(  8 -  8) =     40.69196  eV     1   --> B              
     e(  9 -  9) =     41.13380  eV     1   --> A              
     e( 10 - 10) =     43.08736  eV     1   --> A              
     e( 11 - 11) =     53.77777  eV     1   --> A              
     e( 12 - 12) =     54.07287  eV     1   --> B              
     e( 13 - 13) =     59.71289  eV     1   --> B              
     e( 14 - 14) =     61.91952  eV     1   --> A              
     e( 15 - 15) =     65.91940  eV     1   --> B              
     e( 16 - 16) =     67.92450  eV     1   --> A              

 **************************************************************************

 **************************************************************************

                    xk=(   0.75000,   0.25000,   0.50000  )

     Band symmetry, C_2  (2)    point group:

     e(  1 -  1) =      8.04408  eV     1   --> B              
     e(  2 -  2) =      9.77069  eV     1   --> A              
     e(  3 -  3) =     17.90407  eV     1   --> B              
     e(  4 -  4) =     22.19040  eV     1   --> A              
     e(  5 -  5) =     30.47590  eV     1   --> A              
     e(  6 -  6) =     31.33607  eV     1   --> B              
     e(  7 -  7) =     39.76202  eV     1   --> B              
     e(  8 -  8) =     40.69196  eV     1   --> B              
     e(  9 -  9) =     41.13380  eV     1   --> A              
     e( 10 - 10) =     43.08736  eV     1   --> A              
     e( 11 - 11) =     53.77777  eV     1   --> A              
     e( 12 - 12) =     54.07287  eV     1   --> B              
     e( 13 - 13) =     59.71289  eV     1   --> B              
     e( 14 - 14) =     61.91952  eV     1   --> A              
     e( 15 - 15) =     65.91940  eV     1   --> B              
     e( 16 - 16) =     67.92450  eV     1   --> A              

 **************************************************************************

 **************************************************************************

                    xk=(   0.50000,   0.00000,   0.50000  )

     point group C_2v (mm2) 
     there are  4 classes
     the character table:

       E     C2    s_v   s_v' 
A_1    1.00  1.00  1.00  1.00
A_2    1.00  1.00 -1.00 -1.00
B_1    1.00 -1.00  1.00 -1.00
B_2    1.00 -1.00 -1.00  1.00

     the symmetry operations in each class and the name of the first element:

     E        1
                                                                 
     C2       2
                                                                 
     s_v      3
                                                                 
     s_v'     4
                                                                 

     Band symmetry, C_2v (mm2)  point group:

     e(  1 -  1) =      4.87888  eV     1   --> A_1  D_1  S_1  
     e(  2 -  2) =     14.16479  eV     1   --> B_2  D_4  S_4  
     e(  3 -  3) =     16.87094  eV     1   --> A_1  D_1  S_1  
     e(  4 -  4) =     25.31027  eV     1   --> B_1  D_3  S_3  
     e(  5 -  5) =     28.88590  eV     1   --> A_1  D_1  S_1  
     e(  6 -  6) =     33.10635  eV     1   --> A_2  D_2  S_2  
     e(  7 -  7) =     37.46972  eV     1   --> B_2  D_4  S_4  
     e(  8 -  8) =     38.78143  eV     1   --> B_1  D_3  S_3  
     e(  9 -  9) =     40.39471  eV     1   --> A_1  D_1  S_1  
     e( 10 - 10) =     44.81657  eV     1   --> A_1  D_1  S_1  
     e( 11 - 11) =     48.45159  eV     1   --> B_2  D_4  S_4  
     e( 12 - 12) =     53.81879  eV     1   --> A_1  D_1  S_1  
     e( 13 - 13) =     57.55623  eV     1   --> B_2  D_4  S_4  
     e( 14 - 14) =     64.28826  eV     1   --> A_1  D_1  S_1  
     e( 15 - 15) =     65.06994  eV     1   --> A_2  D_2  S_2  
     e( 16 - 16) =     65.70298  eV     1   --> B_1  D_3  S_3  

 **************************************************************************

     BANDS        :     15.03s CPU      1.95s WALL


   This run was terminated on:  10:41: 2   5Nov2023            

=------------------------------------------------------------------------------=
   JOB DONE.
=------------------------------------------------------------------------------=
