
     Program PWSCF v.7.2 starts on  5Nov2023 at  9:21:49 

     This program is part of the open-source Quantum ESPRESSO suite
     for quantum simulation of materials; please cite
         "P. Giannozzi et al., J. Phys.:Condens. Matter 21 395502 (2009);
         "P. Giannozzi et al., J. Phys.:Condens. Matter 29 465901 (2017);
         "P. Giannozzi et al., J. Chem. Phys. 152 154105 (2020);
          URL http://www.quantum-espresso.org", 
     in publications or presentations arising from this work. More details at
     http://www.quantum-espresso.org/quote

     Parallel version (MPI), running on     1 processors

     MPI processes distributed on     1 nodes
     89904 MiB available memory on the printing compute node when the environment starts

     Waiting for input...
     Reading input from standard input
     Message from routine read_cards :
     DEPRECATED: no units specified in CELL_PARAMETERS card

     Current dimensions of program PWSCF are:
     Max number of different atomic species (ntypx) = 10
     Max number of k-points (npk) =  40000
     Max angular momentum in pseudopotentials (lmaxx) =  4
     file Mg.pbe-n-kjpaw_psl.0.3.0.UPF: wavefunction(s)  3S renormalized
     Message from routine setup:
     using ibrav=0 with symmetry is DISCOURAGED, use correct ibrav instead

     Subspace diagonalization in iterative solution of the eigenvalue problem:
     a serial algorithm will be used


     G-vector sticks info
     --------------------
     sticks:   dense  smooth     PW     G-vecs:    dense   smooth      PW
     Sum        1609     717    221                48501    14363    2517

     Using Slab Decomposition



     bravais-lattice index     =            0
     lattice parameter (alat)  =       6.7085  a.u.
     unit-cell volume          =     301.9129 (a.u.)^3
     number of atoms/cell      =            1
     number of atomic types    =            1
     number of electrons       =         2.00
     number of Kohn-Sham states=            5
     kinetic-energy cutoff     =      50.0000  Ry
     charge density cutoff     =     450.0000  Ry
     scf convergence threshold =      1.0E-06
     mixing beta               =       0.7000
     number of iterations used =            8  plain     mixing
     energy convergence thresh.=      1.0E-04
     force convergence thresh. =      1.0E-03
     press convergence thresh. =      5.0E-01
     Exchange-correlation= SLA  PW   PBX  PBC
                           (   1   4   3   4   0   0   0)
     nstep                     =           50


     celldm(1)=   6.708528  celldm(2)=   0.000000  celldm(3)=   0.000000
     celldm(4)=   0.000000  celldm(5)=   0.000000  celldm(6)=   0.000000

     crystal axes: (cart. coord. in units of alat)
               a(1) = (   1.000000   0.000000   0.000000 )  
               a(2) = (   0.000000   1.000000   0.000000 )  
               a(3) = (   0.000000   0.000000   1.000000 )  

     reciprocal axes: (cart. coord. in units 2 pi/alat)
               b(1) = (  1.000000  0.000000  0.000000 )  
               b(2) = (  0.000000  1.000000  0.000000 )  
               b(3) = (  0.000000  0.000000  1.000000 )  


     PseudoPot. # 1 for Mg read from file:
     ../pseudos/Mg.pbe-n-kjpaw_psl.0.3.0.UPF
     MD5 check sum: d3e4124f57d03672d8f0e29aa18e2cc4
     Pseudo is Projector augmented-wave + core cor, Zval =  2.0
     Generated using &quot;atomic&quot; code by A. Dal Corso  v.6.3
     Shape of augmentation charge: PSQ
     Using radial grid of 1129 points,  4 beta functions with: 
                l(1) =   0
                l(2) =   0
                l(3) =   1
                l(4) =   1
     Q(r) pseudized with 0 coefficients 


     atomic species   valence    mass     pseudopotential
        Mg             2.00    24.30500     Mg( 1.00)

     48 Sym. Ops., with inversion, found


                                    s                        frac. trans.

      isym =  1     identity                                     

 cryst.   s( 1) = (     1          0          0      )
                  (     0          1          0      )
                  (     0          0          1      )

 cart.    s( 1) = (  1.0000000  0.0000000  0.0000000 )
                  (  0.0000000  1.0000000  0.0000000 )
                  (  0.0000000  0.0000000  1.0000000 )


      isym =  2     180 deg rotation - cart. axis [0,0,1]        

 cryst.   s( 2) = (    -1          0          0      )
                  (     0         -1          0      )
                  (     0          0          1      )

 cart.    s( 2) = ( -1.0000000  0.0000000  0.0000000 )
                  (  0.0000000 -1.0000000  0.0000000 )
                  (  0.0000000  0.0000000  1.0000000 )


      isym =  3     180 deg rotation - cart. axis [0,1,0]        

 cryst.   s( 3) = (    -1          0          0      )
                  (     0          1          0      )
                  (     0          0         -1      )

 cart.    s( 3) = ( -1.0000000  0.0000000  0.0000000 )
                  (  0.0000000  1.0000000  0.0000000 )
                  (  0.0000000  0.0000000 -1.0000000 )


      isym =  4     180 deg rotation - cart. axis [1,0,0]        

 cryst.   s( 4) = (     1          0          0      )
                  (     0         -1          0      )
                  (     0          0         -1      )

 cart.    s( 4) = (  1.0000000  0.0000000  0.0000000 )
                  (  0.0000000 -1.0000000  0.0000000 )
                  (  0.0000000  0.0000000 -1.0000000 )


      isym =  5     180 deg rotation - cart. axis [1,1,0]        

 cryst.   s( 5) = (     0          1          0      )
                  (     1          0          0      )
                  (     0          0         -1      )

 cart.    s( 5) = (  0.0000000  1.0000000  0.0000000 )
                  (  1.0000000  0.0000000  0.0000000 )
                  (  0.0000000  0.0000000 -1.0000000 )


      isym =  6     180 deg rotation - cart. axis [1,-1,0]       

 cryst.   s( 6) = (     0         -1          0      )
                  (    -1          0          0      )
                  (     0          0         -1      )

 cart.    s( 6) = (  0.0000000 -1.0000000  0.0000000 )
                  ( -1.0000000  0.0000000  0.0000000 )
                  (  0.0000000  0.0000000 -1.0000000 )


      isym =  7      90 deg rotation - cart. axis [0,0,-1]       

 cryst.   s( 7) = (     0         -1          0      )
                  (     1          0          0      )
                  (     0          0          1      )

 cart.    s( 7) = (  0.0000000  1.0000000  0.0000000 )
                  ( -1.0000000  0.0000000  0.0000000 )
                  (  0.0000000  0.0000000  1.0000000 )


      isym =  8      90 deg rotation - cart. axis [0,0,1]        

 cryst.   s( 8) = (     0          1          0      )
                  (    -1          0          0      )
                  (     0          0          1      )

 cart.    s( 8) = (  0.0000000 -1.0000000  0.0000000 )
                  (  1.0000000  0.0000000  0.0000000 )
                  (  0.0000000  0.0000000  1.0000000 )


      isym =  9     180 deg rotation - cart. axis [1,0,1]        

 cryst.   s( 9) = (     0          0          1      )
                  (     0         -1          0      )
                  (     1          0          0      )

 cart.    s( 9) = (  0.0000000  0.0000000  1.0000000 )
                  (  0.0000000 -1.0000000  0.0000000 )
                  (  1.0000000  0.0000000  0.0000000 )


      isym = 10     180 deg rotation - cart. axis [-1,0,1]       

 cryst.   s(10) = (     0          0         -1      )
                  (     0         -1          0      )
                  (    -1          0          0      )

 cart.    s(10) = (  0.0000000  0.0000000 -1.0000000 )
                  (  0.0000000 -1.0000000  0.0000000 )
                  ( -1.0000000  0.0000000  0.0000000 )


      isym = 11      90 deg rotation - cart. axis [0,1,0]        

 cryst.   s(11) = (     0          0         -1      )
                  (     0          1          0      )
                  (     1          0          0      )

 cart.    s(11) = (  0.0000000  0.0000000  1.0000000 )
                  (  0.0000000  1.0000000  0.0000000 )
                  ( -1.0000000  0.0000000  0.0000000 )


      isym = 12      90 deg rotation - cart. axis [0,-1,0]       

 cryst.   s(12) = (     0          0          1      )
                  (     0          1          0      )
                  (    -1          0          0      )

 cart.    s(12) = (  0.0000000  0.0000000 -1.0000000 )
                  (  0.0000000  1.0000000  0.0000000 )
                  (  1.0000000  0.0000000  0.0000000 )


      isym = 13     180 deg rotation - cart. axis [0,1,1]        

 cryst.   s(13) = (    -1          0          0      )
                  (     0          0          1      )
                  (     0          1          0      )

 cart.    s(13) = ( -1.0000000  0.0000000  0.0000000 )
                  (  0.0000000  0.0000000  1.0000000 )
                  (  0.0000000  1.0000000  0.0000000 )


      isym = 14     180 deg rotation - cart. axis [0,1,-1]       

 cryst.   s(14) = (    -1          0          0      )
                  (     0          0         -1      )
                  (     0         -1          0      )

 cart.    s(14) = ( -1.0000000  0.0000000  0.0000000 )
                  (  0.0000000  0.0000000 -1.0000000 )
                  (  0.0000000 -1.0000000  0.0000000 )


      isym = 15      90 deg rotation - cart. axis [-1,0,0]       

 cryst.   s(15) = (     1          0          0      )
                  (     0          0         -1      )
                  (     0          1          0      )

 cart.    s(15) = (  1.0000000  0.0000000  0.0000000 )
                  (  0.0000000  0.0000000  1.0000000 )
                  (  0.0000000 -1.0000000  0.0000000 )


      isym = 16      90 deg rotation - cart. axis [1,0,0]        

 cryst.   s(16) = (     1          0          0      )
                  (     0          0          1      )
                  (     0         -1          0      )

 cart.    s(16) = (  1.0000000  0.0000000  0.0000000 )
                  (  0.0000000  0.0000000 -1.0000000 )
                  (  0.0000000  1.0000000  0.0000000 )


      isym = 17     120 deg rotation - cart. axis [-1,-1,-1]     

 cryst.   s(17) = (     0          0          1      )
                  (     1          0          0      )
                  (     0          1          0      )

 cart.    s(17) = (  0.0000000  1.0000000  0.0000000 )
                  (  0.0000000  0.0000000  1.0000000 )
                  (  1.0000000  0.0000000  0.0000000 )


      isym = 18     120 deg rotation - cart. axis [-1,1,1]       

 cryst.   s(18) = (     0          0         -1      )
                  (    -1          0          0      )
                  (     0          1          0      )

 cart.    s(18) = (  0.0000000 -1.0000000  0.0000000 )
                  (  0.0000000  0.0000000  1.0000000 )
                  ( -1.0000000  0.0000000  0.0000000 )


      isym = 19     120 deg rotation - cart. axis [1,1,-1]       

 cryst.   s(19) = (     0          0         -1      )
                  (     1          0          0      )
                  (     0         -1          0      )

 cart.    s(19) = (  0.0000000  1.0000000  0.0000000 )
                  (  0.0000000  0.0000000 -1.0000000 )
                  ( -1.0000000  0.0000000  0.0000000 )


      isym = 20     120 deg rotation - cart. axis [1,-1,1]       

 cryst.   s(20) = (     0          0          1      )
                  (    -1          0          0      )
                  (     0         -1          0      )

 cart.    s(20) = (  0.0000000 -1.0000000  0.0000000 )
                  (  0.0000000  0.0000000 -1.0000000 )
                  (  1.0000000  0.0000000  0.0000000 )


      isym = 21     120 deg rotation - cart. axis [1,1,1]        

 cryst.   s(21) = (     0          1          0      )
                  (     0          0          1      )
                  (     1          0          0      )

 cart.    s(21) = (  0.0000000  0.0000000  1.0000000 )
                  (  1.0000000  0.0000000  0.0000000 )
                  (  0.0000000  1.0000000  0.0000000 )


      isym = 22     120 deg rotation - cart. axis [-1,1,-1]      

 cryst.   s(22) = (     0         -1          0      )
                  (     0          0         -1      )
                  (     1          0          0      )

 cart.    s(22) = (  0.0000000  0.0000000  1.0000000 )
                  ( -1.0000000  0.0000000  0.0000000 )
                  (  0.0000000 -1.0000000  0.0000000 )


      isym = 23     120 deg rotation - cart. axis [1,-1,-1]      

 cryst.   s(23) = (     0         -1          0      )
                  (     0          0          1      )
                  (    -1          0          0      )

 cart.    s(23) = (  0.0000000  0.0000000 -1.0000000 )
                  ( -1.0000000  0.0000000  0.0000000 )
                  (  0.0000000  1.0000000  0.0000000 )


      isym = 24     120 deg rotation - cart. axis [-1,-1,1]      

 cryst.   s(24) = (     0          1          0      )
                  (     0          0         -1      )
                  (    -1          0          0      )

 cart.    s(24) = (  0.0000000  0.0000000 -1.0000000 )
                  (  1.0000000  0.0000000  0.0000000 )
                  (  0.0000000 -1.0000000  0.0000000 )


      isym = 25     inversion                                    

 cryst.   s(25) = (    -1          0          0      )
                  (     0         -1          0      )
                  (     0          0         -1      )

 cart.    s(25) = ( -1.0000000  0.0000000  0.0000000 )
                  (  0.0000000 -1.0000000  0.0000000 )
                  (  0.0000000  0.0000000 -1.0000000 )


      isym = 26     inv. 180 deg rotation - cart. axis [0,0,1]   

 cryst.   s(26) = (     1          0          0      )
                  (     0          1          0      )
                  (     0          0         -1      )

 cart.    s(26) = (  1.0000000  0.0000000  0.0000000 )
                  (  0.0000000  1.0000000  0.0000000 )
                  (  0.0000000  0.0000000 -1.0000000 )


      isym = 27     inv. 180 deg rotation - cart. axis [0,1,0]   

 cryst.   s(27) = (     1          0          0      )
                  (     0         -1          0      )
                  (     0          0          1      )

 cart.    s(27) = (  1.0000000  0.0000000  0.0000000 )
                  (  0.0000000 -1.0000000  0.0000000 )
                  (  0.0000000  0.0000000  1.0000000 )


      isym = 28     inv. 180 deg rotation - cart. axis [1,0,0]   

 cryst.   s(28) = (    -1          0          0      )
                  (     0          1          0      )
                  (     0          0          1      )

 cart.    s(28) = ( -1.0000000  0.0000000  0.0000000 )
                  (  0.0000000  1.0000000  0.0000000 )
                  (  0.0000000  0.0000000  1.0000000 )


      isym = 29     inv. 180 deg rotation - cart. axis [1,1,0]   

 cryst.   s(29) = (     0         -1          0      )
                  (    -1          0          0      )
                  (     0          0          1      )

 cart.    s(29) = (  0.0000000 -1.0000000  0.0000000 )
                  ( -1.0000000  0.0000000  0.0000000 )
                  (  0.0000000  0.0000000  1.0000000 )


      isym = 30     inv. 180 deg rotation - cart. axis [1,-1,0]  

 cryst.   s(30) = (     0          1          0      )
                  (     1          0          0      )
                  (     0          0          1      )

 cart.    s(30) = (  0.0000000  1.0000000  0.0000000 )
                  (  1.0000000  0.0000000  0.0000000 )
                  (  0.0000000  0.0000000  1.0000000 )


      isym = 31     inv.  90 deg rotation - cart. axis [0,0,-1]  

 cryst.   s(31) = (     0          1          0      )
                  (    -1          0          0      )
                  (     0          0         -1      )

 cart.    s(31) = (  0.0000000 -1.0000000  0.0000000 )
                  (  1.0000000  0.0000000  0.0000000 )
                  (  0.0000000  0.0000000 -1.0000000 )


      isym = 32     inv.  90 deg rotation - cart. axis [0,0,1]   

 cryst.   s(32) = (     0         -1          0      )
                  (     1          0          0      )
                  (     0          0         -1      )

 cart.    s(32) = (  0.0000000  1.0000000  0.0000000 )
                  ( -1.0000000  0.0000000  0.0000000 )
                  (  0.0000000  0.0000000 -1.0000000 )


      isym = 33     inv. 180 deg rotation - cart. axis [1,0,1]   

 cryst.   s(33) = (     0          0         -1      )
                  (     0          1          0      )
                  (    -1          0          0      )

 cart.    s(33) = (  0.0000000  0.0000000 -1.0000000 )
                  (  0.0000000  1.0000000  0.0000000 )
                  ( -1.0000000  0.0000000  0.0000000 )


      isym = 34     inv. 180 deg rotation - cart. axis [-1,0,1]  

 cryst.   s(34) = (     0          0          1      )
                  (     0          1          0      )
                  (     1          0          0      )

 cart.    s(34) = (  0.0000000  0.0000000  1.0000000 )
                  (  0.0000000  1.0000000  0.0000000 )
                  (  1.0000000  0.0000000  0.0000000 )


      isym = 35     inv.  90 deg rotation - cart. axis [0,1,0]   

 cryst.   s(35) = (     0          0          1      )
                  (     0         -1          0      )
                  (    -1          0          0      )

 cart.    s(35) = (  0.0000000  0.0000000 -1.0000000 )
                  (  0.0000000 -1.0000000  0.0000000 )
                  (  1.0000000  0.0000000  0.0000000 )


      isym = 36     inv.  90 deg rotation - cart. axis [0,-1,0]  

 cryst.   s(36) = (     0          0         -1      )
                  (     0         -1          0      )
                  (     1          0          0      )

 cart.    s(36) = (  0.0000000  0.0000000  1.0000000 )
                  (  0.0000000 -1.0000000  0.0000000 )
                  ( -1.0000000  0.0000000  0.0000000 )


      isym = 37     inv. 180 deg rotation - cart. axis [0,1,1]   

 cryst.   s(37) = (     1          0          0      )
                  (     0          0         -1      )
                  (     0         -1          0      )

 cart.    s(37) = (  1.0000000  0.0000000  0.0000000 )
                  (  0.0000000  0.0000000 -1.0000000 )
                  (  0.0000000 -1.0000000  0.0000000 )


      isym = 38     inv. 180 deg rotation - cart. axis [0,1,-1]  

 cryst.   s(38) = (     1          0          0      )
                  (     0          0          1      )
                  (     0          1          0      )

 cart.    s(38) = (  1.0000000  0.0000000  0.0000000 )
                  (  0.0000000  0.0000000  1.0000000 )
                  (  0.0000000  1.0000000  0.0000000 )


      isym = 39     inv.  90 deg rotation - cart. axis [-1,0,0]  

 cryst.   s(39) = (    -1          0          0      )
                  (     0          0          1      )
                  (     0         -1          0      )

 cart.    s(39) = ( -1.0000000  0.0000000  0.0000000 )
                  (  0.0000000  0.0000000 -1.0000000 )
                  (  0.0000000  1.0000000  0.0000000 )


      isym = 40     inv.  90 deg rotation - cart. axis [1,0,0]   

 cryst.   s(40) = (    -1          0          0      )
                  (     0          0         -1      )
                  (     0          1          0      )

 cart.    s(40) = ( -1.0000000  0.0000000  0.0000000 )
                  (  0.0000000  0.0000000  1.0000000 )
                  (  0.0000000 -1.0000000  0.0000000 )


      isym = 41     inv. 120 deg rotation - cart. axis [-1,-1,-1]

 cryst.   s(41) = (     0          0         -1      )
                  (    -1          0          0      )
                  (     0         -1          0      )

 cart.    s(41) = (  0.0000000 -1.0000000  0.0000000 )
                  (  0.0000000  0.0000000 -1.0000000 )
                  ( -1.0000000  0.0000000  0.0000000 )


      isym = 42     inv. 120 deg rotation - cart. axis [-1,1,1]  

 cryst.   s(42) = (     0          0          1      )
                  (     1          0          0      )
                  (     0         -1          0      )

 cart.    s(42) = (  0.0000000  1.0000000  0.0000000 )
                  (  0.0000000  0.0000000 -1.0000000 )
                  (  1.0000000  0.0000000  0.0000000 )


      isym = 43     inv. 120 deg rotation - cart. axis [1,1,-1]  

 cryst.   s(43) = (     0          0          1      )
                  (    -1          0          0      )
                  (     0          1          0      )

 cart.    s(43) = (  0.0000000 -1.0000000  0.0000000 )
                  (  0.0000000  0.0000000  1.0000000 )
                  (  1.0000000  0.0000000  0.0000000 )


      isym = 44     inv. 120 deg rotation - cart. axis [1,-1,1]  

 cryst.   s(44) = (     0          0         -1      )
                  (     1          0          0      )
                  (     0          1          0      )

 cart.    s(44) = (  0.0000000  1.0000000  0.0000000 )
                  (  0.0000000  0.0000000  1.0000000 )
                  ( -1.0000000  0.0000000  0.0000000 )


      isym = 45     inv. 120 deg rotation - cart. axis [1,1,1]   

 cryst.   s(45) = (     0         -1          0      )
                  (     0          0         -1      )
                  (    -1          0          0      )

 cart.    s(45) = (  0.0000000  0.0000000 -1.0000000 )
                  ( -1.0000000  0.0000000  0.0000000 )
                  (  0.0000000 -1.0000000  0.0000000 )


      isym = 46     inv. 120 deg rotation - cart. axis [-1,1,-1] 

 cryst.   s(46) = (     0          1          0      )
                  (     0          0          1      )
                  (    -1          0          0      )

 cart.    s(46) = (  0.0000000  0.0000000 -1.0000000 )
                  (  1.0000000  0.0000000  0.0000000 )
                  (  0.0000000  1.0000000  0.0000000 )


      isym = 47     inv. 120 deg rotation - cart. axis [1,-1,-1] 

 cryst.   s(47) = (     0          1          0      )
                  (     0          0         -1      )
                  (     1          0          0      )

 cart.    s(47) = (  0.0000000  0.0000000  1.0000000 )
                  (  1.0000000  0.0000000  0.0000000 )
                  (  0.0000000 -1.0000000  0.0000000 )


      isym = 48     inv. 120 deg rotation - cart. axis [-1,-1,1] 

 cryst.   s(48) = (     0         -1          0      )
                  (     0          0          1      )
                  (     1          0          0      )

 cart.    s(48) = (  0.0000000  0.0000000  1.0000000 )
                  ( -1.0000000  0.0000000  0.0000000 )
                  (  0.0000000  1.0000000  0.0000000 )


   Cartesian axes

     site n.     atom                  positions (alat units)
         1           Mg  tau(   1) = (   0.0000000   0.0000000   0.0000000  )

   Crystallographic axes

     site n.     atom                  positions (cryst. coord.)
         1           Mg  tau(   1) = (  0.0000000  0.0000000  0.0000000  )

     number of k points=    84  Marzari-Vanderbilt smearing, width (Ry)=  0.0200
                       cart. coord. in units 2pi/alat
        k(    1) = (   0.0000000   0.0000000   0.0000000), wk =   0.0011574
        k(    2) = (   0.0000000   0.0000000   0.0833333), wk =   0.0069444
        k(    3) = (   0.0000000   0.0000000   0.1666667), wk =   0.0069444
        k(    4) = (   0.0000000   0.0000000   0.2500000), wk =   0.0069444
        k(    5) = (   0.0000000   0.0000000   0.3333333), wk =   0.0069444
        k(    6) = (   0.0000000   0.0000000   0.4166667), wk =   0.0069444
        k(    7) = (   0.0000000   0.0000000  -0.5000000), wk =   0.0034722
        k(    8) = (   0.0000000   0.0833333   0.0833333), wk =   0.0138889
        k(    9) = (   0.0000000   0.0833333   0.1666667), wk =   0.0277778
        k(   10) = (   0.0000000   0.0833333   0.2500000), wk =   0.0277778
        k(   11) = (   0.0000000   0.0833333   0.3333333), wk =   0.0277778
        k(   12) = (   0.0000000   0.0833333   0.4166667), wk =   0.0277778
        k(   13) = (   0.0000000   0.0833333  -0.5000000), wk =   0.0138889
        k(   14) = (   0.0000000   0.1666667   0.1666667), wk =   0.0138889
        k(   15) = (   0.0000000   0.1666667   0.2500000), wk =   0.0277778
        k(   16) = (   0.0000000   0.1666667   0.3333333), wk =   0.0277778
        k(   17) = (   0.0000000   0.1666667   0.4166667), wk =   0.0277778
        k(   18) = (   0.0000000   0.1666667  -0.5000000), wk =   0.0138889
        k(   19) = (   0.0000000   0.2500000   0.2500000), wk =   0.0138889
        k(   20) = (   0.0000000   0.2500000   0.3333333), wk =   0.0277778
        k(   21) = (   0.0000000   0.2500000   0.4166667), wk =   0.0277778
        k(   22) = (   0.0000000   0.2500000  -0.5000000), wk =   0.0138889
        k(   23) = (   0.0000000   0.3333333   0.3333333), wk =   0.0138889
        k(   24) = (   0.0000000   0.3333333   0.4166667), wk =   0.0277778
        k(   25) = (   0.0000000   0.3333333  -0.5000000), wk =   0.0138889
        k(   26) = (   0.0000000   0.4166667   0.4166667), wk =   0.0138889
        k(   27) = (   0.0000000   0.4166667  -0.5000000), wk =   0.0138889
        k(   28) = (   0.0000000  -0.5000000  -0.5000000), wk =   0.0034722
        k(   29) = (   0.0833333   0.0833333   0.0833333), wk =   0.0092593
        k(   30) = (   0.0833333   0.0833333   0.1666667), wk =   0.0277778
        k(   31) = (   0.0833333   0.0833333   0.2500000), wk =   0.0277778
        k(   32) = (   0.0833333   0.0833333   0.3333333), wk =   0.0277778
        k(   33) = (   0.0833333   0.0833333   0.4166667), wk =   0.0277778
        k(   34) = (   0.0833333   0.0833333  -0.5000000), wk =   0.0138889
        k(   35) = (   0.0833333   0.1666667   0.1666667), wk =   0.0277778
        k(   36) = (   0.0833333   0.1666667   0.2500000), wk =   0.0555556
        k(   37) = (   0.0833333   0.1666667   0.3333333), wk =   0.0555556
        k(   38) = (   0.0833333   0.1666667   0.4166667), wk =   0.0555556
        k(   39) = (   0.0833333   0.1666667  -0.5000000), wk =   0.0277778
        k(   40) = (   0.0833333   0.2500000   0.2500000), wk =   0.0277778
        k(   41) = (   0.0833333   0.2500000   0.3333333), wk =   0.0555556
        k(   42) = (   0.0833333   0.2500000   0.4166667), wk =   0.0555556
        k(   43) = (   0.0833333   0.2500000  -0.5000000), wk =   0.0277778
        k(   44) = (   0.0833333   0.3333333   0.3333333), wk =   0.0277778
        k(   45) = (   0.0833333   0.3333333   0.4166667), wk =   0.0555556
        k(   46) = (   0.0833333   0.3333333  -0.5000000), wk =   0.0277778
        k(   47) = (   0.0833333   0.4166667   0.4166667), wk =   0.0277778
        k(   48) = (   0.0833333   0.4166667  -0.5000000), wk =   0.0277778
        k(   49) = (   0.0833333  -0.5000000  -0.5000000), wk =   0.0069444
        k(   50) = (   0.1666667   0.1666667   0.1666667), wk =   0.0092593
        k(   51) = (   0.1666667   0.1666667   0.2500000), wk =   0.0277778
        k(   52) = (   0.1666667   0.1666667   0.3333333), wk =   0.0277778
        k(   53) = (   0.1666667   0.1666667   0.4166667), wk =   0.0277778
        k(   54) = (   0.1666667   0.1666667  -0.5000000), wk =   0.0138889
        k(   55) = (   0.1666667   0.2500000   0.2500000), wk =   0.0277778
        k(   56) = (   0.1666667   0.2500000   0.3333333), wk =   0.0555556
        k(   57) = (   0.1666667   0.2500000   0.4166667), wk =   0.0555556
        k(   58) = (   0.1666667   0.2500000  -0.5000000), wk =   0.0277778
        k(   59) = (   0.1666667   0.3333333   0.3333333), wk =   0.0277778
        k(   60) = (   0.1666667   0.3333333   0.4166667), wk =   0.0555556
        k(   61) = (   0.1666667   0.3333333  -0.5000000), wk =   0.0277778
        k(   62) = (   0.1666667   0.4166667   0.4166667), wk =   0.0277778
        k(   63) = (   0.1666667   0.4166667  -0.5000000), wk =   0.0277778
        k(   64) = (   0.1666667  -0.5000000  -0.5000000), wk =   0.0069444
        k(   65) = (   0.2500000   0.2500000   0.2500000), wk =   0.0092593
        k(   66) = (   0.2500000   0.2500000   0.3333333), wk =   0.0277778
        k(   67) = (   0.2500000   0.2500000   0.4166667), wk =   0.0277778
        k(   68) = (   0.2500000   0.2500000  -0.5000000), wk =   0.0138889
        k(   69) = (   0.2500000   0.3333333   0.3333333), wk =   0.0277778
        k(   70) = (   0.2500000   0.3333333   0.4166667), wk =   0.0555556
        k(   71) = (   0.2500000   0.3333333  -0.5000000), wk =   0.0277778
        k(   72) = (   0.2500000   0.4166667   0.4166667), wk =   0.0277778
        k(   73) = (   0.2500000   0.4166667  -0.5000000), wk =   0.0277778
        k(   74) = (   0.2500000  -0.5000000  -0.5000000), wk =   0.0069444
        k(   75) = (   0.3333333   0.3333333   0.3333333), wk =   0.0092593
        k(   76) = (   0.3333333   0.3333333   0.4166667), wk =   0.0277778
        k(   77) = (   0.3333333   0.3333333  -0.5000000), wk =   0.0138889
        k(   78) = (   0.3333333   0.4166667   0.4166667), wk =   0.0277778
        k(   79) = (   0.3333333   0.4166667  -0.5000000), wk =   0.0277778
        k(   80) = (   0.3333333  -0.5000000  -0.5000000), wk =   0.0069444
        k(   81) = (   0.4166667   0.4166667   0.4166667), wk =   0.0092593
        k(   82) = (   0.4166667   0.4166667  -0.5000000), wk =   0.0138889
        k(   83) = (   0.4166667  -0.5000000  -0.5000000), wk =   0.0069444
        k(   84) = (  -0.5000000  -0.5000000  -0.5000000), wk =   0.0011574

                       cryst. coord.
        k(    1) = (   0.0000000   0.0000000   0.0000000), wk =   0.0011574
        k(    2) = (   0.0000000   0.0000000   0.0833333), wk =   0.0069444
        k(    3) = (   0.0000000   0.0000000   0.1666667), wk =   0.0069444
        k(    4) = (   0.0000000   0.0000000   0.2500000), wk =   0.0069444
        k(    5) = (   0.0000000   0.0000000   0.3333333), wk =   0.0069444
        k(    6) = (   0.0000000   0.0000000   0.4166667), wk =   0.0069444
        k(    7) = (   0.0000000   0.0000000  -0.5000000), wk =   0.0034722
        k(    8) = (   0.0000000   0.0833333   0.0833333), wk =   0.0138889
        k(    9) = (   0.0000000   0.0833333   0.1666667), wk =   0.0277778
        k(   10) = (   0.0000000   0.0833333   0.2500000), wk =   0.0277778
        k(   11) = (   0.0000000   0.0833333   0.3333333), wk =   0.0277778
        k(   12) = (   0.0000000   0.0833333   0.4166667), wk =   0.0277778
        k(   13) = (   0.0000000   0.0833333  -0.5000000), wk =   0.0138889
        k(   14) = (   0.0000000   0.1666667   0.1666667), wk =   0.0138889
        k(   15) = (   0.0000000   0.1666667   0.2500000), wk =   0.0277778
        k(   16) = (   0.0000000   0.1666667   0.3333333), wk =   0.0277778
        k(   17) = (   0.0000000   0.1666667   0.4166667), wk =   0.0277778
        k(   18) = (   0.0000000   0.1666667  -0.5000000), wk =   0.0138889
        k(   19) = (   0.0000000   0.2500000   0.2500000), wk =   0.0138889
        k(   20) = (   0.0000000   0.2500000   0.3333333), wk =   0.0277778
        k(   21) = (   0.0000000   0.2500000   0.4166667), wk =   0.0277778
        k(   22) = (   0.0000000   0.2500000  -0.5000000), wk =   0.0138889
        k(   23) = (   0.0000000   0.3333333   0.3333333), wk =   0.0138889
        k(   24) = (   0.0000000   0.3333333   0.4166667), wk =   0.0277778
        k(   25) = (   0.0000000   0.3333333  -0.5000000), wk =   0.0138889
        k(   26) = (   0.0000000   0.4166667   0.4166667), wk =   0.0138889
        k(   27) = (   0.0000000   0.4166667  -0.5000000), wk =   0.0138889
        k(   28) = (   0.0000000  -0.5000000  -0.5000000), wk =   0.0034722
        k(   29) = (   0.0833333   0.0833333   0.0833333), wk =   0.0092593
        k(   30) = (   0.0833333   0.0833333   0.1666667), wk =   0.0277778
        k(   31) = (   0.0833333   0.0833333   0.2500000), wk =   0.0277778
        k(   32) = (   0.0833333   0.0833333   0.3333333), wk =   0.0277778
        k(   33) = (   0.0833333   0.0833333   0.4166667), wk =   0.0277778
        k(   34) = (   0.0833333   0.0833333  -0.5000000), wk =   0.0138889
        k(   35) = (   0.0833333   0.1666667   0.1666667), wk =   0.0277778
        k(   36) = (   0.0833333   0.1666667   0.2500000), wk =   0.0555556
        k(   37) = (   0.0833333   0.1666667   0.3333333), wk =   0.0555556
        k(   38) = (   0.0833333   0.1666667   0.4166667), wk =   0.0555556
        k(   39) = (   0.0833333   0.1666667  -0.5000000), wk =   0.0277778
        k(   40) = (   0.0833333   0.2500000   0.2500000), wk =   0.0277778
        k(   41) = (   0.0833333   0.2500000   0.3333333), wk =   0.0555556
        k(   42) = (   0.0833333   0.2500000   0.4166667), wk =   0.0555556
        k(   43) = (   0.0833333   0.2500000  -0.5000000), wk =   0.0277778
        k(   44) = (   0.0833333   0.3333333   0.3333333), wk =   0.0277778
        k(   45) = (   0.0833333   0.3333333   0.4166667), wk =   0.0555556
        k(   46) = (   0.0833333   0.3333333  -0.5000000), wk =   0.0277778
        k(   47) = (   0.0833333   0.4166667   0.4166667), wk =   0.0277778
        k(   48) = (   0.0833333   0.4166667  -0.5000000), wk =   0.0277778
        k(   49) = (   0.0833333  -0.5000000  -0.5000000), wk =   0.0069444
        k(   50) = (   0.1666667   0.1666667   0.1666667), wk =   0.0092593
        k(   51) = (   0.1666667   0.1666667   0.2500000), wk =   0.0277778
        k(   52) = (   0.1666667   0.1666667   0.3333333), wk =   0.0277778
        k(   53) = (   0.1666667   0.1666667   0.4166667), wk =   0.0277778
        k(   54) = (   0.1666667   0.1666667  -0.5000000), wk =   0.0138889
        k(   55) = (   0.1666667   0.2500000   0.2500000), wk =   0.0277778
        k(   56) = (   0.1666667   0.2500000   0.3333333), wk =   0.0555556
        k(   57) = (   0.1666667   0.2500000   0.4166667), wk =   0.0555556
        k(   58) = (   0.1666667   0.2500000  -0.5000000), wk =   0.0277778
        k(   59) = (   0.1666667   0.3333333   0.3333333), wk =   0.0277778
        k(   60) = (   0.1666667   0.3333333   0.4166667), wk =   0.0555556
        k(   61) = (   0.1666667   0.3333333  -0.5000000), wk =   0.0277778
        k(   62) = (   0.1666667   0.4166667   0.4166667), wk =   0.0277778
        k(   63) = (   0.1666667   0.4166667  -0.5000000), wk =   0.0277778
        k(   64) = (   0.1666667  -0.5000000  -0.5000000), wk =   0.0069444
        k(   65) = (   0.2500000   0.2500000   0.2500000), wk =   0.0092593
        k(   66) = (   0.2500000   0.2500000   0.3333333), wk =   0.0277778
        k(   67) = (   0.2500000   0.2500000   0.4166667), wk =   0.0277778
        k(   68) = (   0.2500000   0.2500000  -0.5000000), wk =   0.0138889
        k(   69) = (   0.2500000   0.3333333   0.3333333), wk =   0.0277778
        k(   70) = (   0.2500000   0.3333333   0.4166667), wk =   0.0555556
        k(   71) = (   0.2500000   0.3333333  -0.5000000), wk =   0.0277778
        k(   72) = (   0.2500000   0.4166667   0.4166667), wk =   0.0277778
        k(   73) = (   0.2500000   0.4166667  -0.5000000), wk =   0.0277778
        k(   74) = (   0.2500000  -0.5000000  -0.5000000), wk =   0.0069444
        k(   75) = (   0.3333333   0.3333333   0.3333333), wk =   0.0092593
        k(   76) = (   0.3333333   0.3333333   0.4166667), wk =   0.0277778
        k(   77) = (   0.3333333   0.3333333  -0.5000000), wk =   0.0138889
        k(   78) = (   0.3333333   0.4166667   0.4166667), wk =   0.0277778
        k(   79) = (   0.3333333   0.4166667  -0.5000000), wk =   0.0277778
        k(   80) = (   0.3333333  -0.5000000  -0.5000000), wk =   0.0069444
        k(   81) = (   0.4166667   0.4166667   0.4166667), wk =   0.0092593
        k(   82) = (   0.4166667   0.4166667  -0.5000000), wk =   0.0138889
        k(   83) = (   0.4166667  -0.5000000  -0.5000000), wk =   0.0069444
        k(   84) = (  -0.5000000  -0.5000000  -0.5000000), wk =   0.0011574

     Dense  grid:    48501 G-vectors     FFT dimensions: (  45,  45,  45)

     Smooth grid:    14363 G-vectors     FFT dimensions: (  32,  32,  32)

     Dynamical RAM for                 wfc:       0.14 MB

     Dynamical RAM for     wfc (w. buffer):      11.69 MB

     Dynamical RAM for           str. fact:       0.74 MB

     Dynamical RAM for           local pot:       0.00 MB

     Dynamical RAM for          nlocal pot:       0.22 MB

     Dynamical RAM for                qrad:       0.97 MB

     Dynamical RAM for          rho,v,vnew:       4.31 MB

     Dynamical RAM for               rhoin:       1.44 MB

     Dynamical RAM for            rho*nmix:      11.84 MB

     Dynamical RAM for           G-vectors:       2.88 MB

     Dynamical RAM for          h,s,v(r/c):       0.00 MB

     Dynamical RAM for          <psi|beta>:       0.00 MB

     Dynamical RAM for                 psi:       0.28 MB

     Dynamical RAM for                hpsi:       0.28 MB

     Dynamical RAM for                spsi:       0.28 MB

     Dynamical RAM for      wfcinit/wfcrot:       0.28 MB

     Dynamical RAM for           addusdens:      32.56 MB

     Dynamical RAM for          addusforce:      32.93 MB

     Dynamical RAM for         addusstress:      37.00 MB

     Estimated static dynamical RAM per process >      27.21 MB

     Estimated max dynamical RAM per process >      76.05 MB

     Initial potential from superposition of free atoms

     starting charge       1.9991, renormalised to       2.0000
     Starting wfcs are    4 randomized atomic wfcs +    1 random wfcs
     Checking if some PAW data can be deallocated... 

     total cpu time spent up to now is        3.2 secs

     Self-consistent Calculation

     iteration #  1     ecut=    50.00 Ry     beta= 0.70
     Davidson diagonalization with overlap

---- Real-time Memory Report at c_bands before calling an iterative solver
            79 MiB given to the printing process from OS
             0 MiB allocation reported by mallinfo(arena+hblkhd)
         89863 MiB available memory on the node where the printing process lives
------------------
     ethr =  1.00E-02,  avg # of iterations =  6.5

     Threshold (ethr) on eigenvalues was too large:
     Diagonalizing with lowered threshold

     Davidson diagonalization with overlap

---- Real-time Memory Report at c_bands before calling an iterative solver
            89 MiB given to the printing process from OS
             0 MiB allocation reported by mallinfo(arena+hblkhd)
         89839 MiB available memory on the node where the printing process lives
------------------
     ethr =  2.04E-04,  avg # of iterations =  2.4

     total cpu time spent up to now is       10.6 secs

     total energy              =     -33.56476652 Ry
     estimated scf accuracy    <       0.00397421 Ry

     iteration #  2     ecut=    50.00 Ry     beta= 0.70
     Davidson diagonalization with overlap

---- Real-time Memory Report at c_bands before calling an iterative solver
            98 MiB given to the printing process from OS
             0 MiB allocation reported by mallinfo(arena+hblkhd)
         89839 MiB available memory on the node where the printing process lives
------------------
     ethr =  1.99E-04,  avg # of iterations =  1.0

     total cpu time spent up to now is       12.3 secs

     total energy              =     -33.56482169 Ry
     estimated scf accuracy    <       0.00027071 Ry

     iteration #  3     ecut=    50.00 Ry     beta= 0.70
     Davidson diagonalization with overlap

---- Real-time Memory Report at c_bands before calling an iterative solver
            98 MiB given to the printing process from OS
             0 MiB allocation reported by mallinfo(arena+hblkhd)
         89836 MiB available memory on the node where the printing process lives
------------------
     ethr =  1.35E-05,  avg # of iterations =  3.8

     total cpu time spent up to now is       15.9 secs

     End of self-consistent calculation

          k = 0.0000 0.0000 0.0000 (  1791 PWs)   bands (ev):

    -4.1552   7.0337   7.0337   7.0337   7.0451

     occupation numbers 
     1.0000   0.0000   0.0000   0.0000   0.0000

          k = 0.0000 0.0000 0.0833 (  1811 PWs)   bands (ev):

    -4.0742   5.4665   7.1046   7.1046   7.1165

     occupation numbers 
     1.0000   0.0000   0.0000   0.0000   0.0000

          k = 0.0000 0.0000 0.1667 (  1811 PWs)   bands (ev):

    -3.8310   3.9113   7.3162   7.3162   7.3294

     occupation numbers 
     1.0000   0.0000   0.0000   0.0000   0.0000

          k = 0.0000 0.0000 0.2500 (  1803 PWs)   bands (ev):

    -3.4316   2.4612   7.6619   7.6634   7.6635

     occupation numbers 
     1.0000   0.0000   0.0000   0.0000   0.0000

          k = 0.0000 0.0000 0.3333 (  1783 PWs)   bands (ev):

    -2.8826   1.1533   8.0894   8.1315   8.1315

     occupation numbers 
     1.0000   0.0000   0.0000   0.0000   0.0000

          k = 0.0000 0.0000 0.4167 (  1807 PWs)   bands (ev):

    -2.2216   0.0336   8.5080   8.6607   8.6607

     occupation numbers 
     1.0000   1.0780   0.0000   0.0000   0.0000

          k = 0.0000 0.0000-0.5000 (  1800 PWs)   bands (ev):

    -1.7471  -0.5941   8.7059   8.9753   8.9753

     occupation numbers 
     1.0000   1.0001   0.0000   0.0000   0.0000

          k = 0.0000 0.0833 0.0833 (  1805 PWs)   bands (ev):

    -3.9923   5.3415   5.8031   7.1755   7.8558

     occupation numbers 
     1.0000   0.0000   0.0000   0.0000   0.0000

          k = 0.0000 0.0833 0.1667 (  1816 PWs)   bands (ev):

    -3.7501   3.9717   5.8385   7.3869   8.1457

     occupation numbers 
     1.0000   0.0000   0.0000   0.0000   0.0000

          k = 0.0000 0.0833 0.2500 (  1808 PWs)   bands (ev):

    -3.3502   2.5338   6.1830   7.7338   8.5075

     occupation numbers 
     1.0000   0.0000   0.0000   0.0000   0.0000

          k = 0.0000 0.0833 0.3333 (  1806 PWs)   bands (ev):

    -2.8018   1.2290   6.6541   8.2012   8.9573

     occupation numbers 
     1.0000   0.0000   0.0000   0.0000   0.0000

          k = 0.0000 0.0833 0.4167 (  1804 PWs)   bands (ev):

    -2.1405   0.1102   7.1776   8.7294   9.3397

     occupation numbers 
     1.0000   1.0249   0.0000   0.0000   0.0000

          k = 0.0000 0.0833-0.5000 (  1798 PWs)   bands (ev):

    -1.6652  -0.5182   7.4742   9.0429   9.2502

     occupation numbers 
     1.0000   1.0004   0.0000   0.0000   0.0000

          k = 0.0000 0.1667 0.1667 (  1807 PWs)   bands (ev):

    -3.5083   3.9495   4.5354   7.5977   8.4755

     occupation numbers 
     1.0000   0.0000   0.0000   0.0000   0.0000

          k = 0.0000 0.1667 0.2500 (  1805 PWs)   bands (ev):

    -3.1085   2.7410   4.6630   7.9434   8.8025

     occupation numbers 
     1.0000   0.0000   0.0000   0.0000   0.0000

          k = 0.0000 0.1667 0.3333 (  1807 PWs)   bands (ev):

    -2.5603   1.4534   5.1383   8.4089   8.8223

     occupation numbers 
     1.0000   0.0000   0.0000   0.0000   0.0000

          k = 0.0000 0.1667 0.4167 (  1803 PWs)   bands (ev):

    -1.8982   0.3385   5.7001   8.0817   8.9342

     occupation numbers 
     1.0000   0.5115   0.0000   0.0000   0.0000

          k = 0.0000 0.1667-0.5000 (  1816 PWs)   bands (ev):

    -1.4196  -0.2920   6.0448   7.6232   9.2449

     occupation numbers 
     1.0000   1.0114   0.0000   0.0000   0.0000

          k = 0.0000 0.2500 0.2500 (  1799 PWs)   bands (ev):

    -2.7092   2.8658   3.4684   8.2872   8.6454

     occupation numbers 
     1.0000   0.0000   0.0000   0.0000   0.0000

          k = 0.0000 0.2500 0.3333 (  1807 PWs)   bands (ev):

    -2.1610   1.8122   3.7250   7.6507   8.7495

     occupation numbers 
     1.0000   0.0000   0.0000   0.0000   0.0000

          k = 0.0000 0.2500 0.4167 (  1807 PWs)   bands (ev):

    -1.4976   0.7125   4.2939   6.6573   9.2703

     occupation numbers 
     1.0000   0.0130   0.0000   0.0000   0.0000

          k = 0.0000 0.2500-0.5000 (  1818 PWs)   bands (ev):

    -1.0129   0.0790   4.6636   6.1409   9.5771

     occupation numbers 
     1.0000   1.0545   0.0000   0.0000   0.0000

          k = 0.0000 0.3333 0.3333 (  1805 PWs)   bands (ev):

    -1.6124   2.0917   2.6600   6.4227   9.2070

     occupation numbers 
     1.0000   0.0000   0.0000   0.0000   0.0000

          k = 0.0000 0.3333 0.4167 (  1798 PWs)   bands (ev):

    -0.9458   1.2115   3.0179   5.3797   9.7239

     occupation numbers 
     1.0000   0.0000   0.0000   0.0000   0.0000

          k = 0.0000 0.3333-0.5000 (  1796 PWs)   bands (ev):

    -0.4496   0.5778   3.3872   4.8467  10.0267

     occupation numbers 
     1.0012   0.0728   0.0000   0.0000   0.0000

          k = 0.0000 0.4167 0.4167 (  1790 PWs)   bands (ev):

    -0.2697   1.6273   2.0692   4.3272  10.2368

     occupation numbers 
     1.0148   0.0000   0.0000   0.0000   0.0000

          k = 0.0000 0.4167-0.5000 (  1782 PWs)   bands (ev):

     0.2559   1.1408   2.2477   3.8055  10.5418

     occupation numbers 
     0.7374   0.0000   0.0000   0.0000   0.0000

          k = 0.0000-0.5000-0.5000 (  1772 PWs)   bands (ev):

     0.8855   1.4725   1.4725   3.3140  10.8570

     occupation numbers 
     0.0007   0.0000   0.0000   0.0000   0.0000

          k = 0.0833 0.0833 0.0833 (  1812 PWs)   bands (ev):

    -3.9112   5.4135   5.4135   6.3275   9.1063

     occupation numbers 
     1.0000   0.0000   0.0000   0.0000   0.0000

          k = 0.0833 0.0833 0.1667 (  1813 PWs)   bands (ev):

    -3.6692   4.0335   5.6275   6.3769   9.3123

     occupation numbers 
     1.0000   0.0000   0.0000   0.0000   0.0000

          k = 0.0833 0.0833 0.2500 (  1811 PWs)   bands (ev):

    -3.2694   2.6063   5.9753   6.7275   9.6364

     occupation numbers 
     1.0000   0.0000   0.0000   0.0000   0.0000

          k = 0.0833 0.0833 0.3333 (  1807 PWs)   bands (ev):

    -2.7211   1.3045   6.4333   7.2338  10.0236

     occupation numbers 
     1.0000   0.0000   0.0000   0.0000   0.0000

          k = 0.0833 0.0833 0.4167 (  1802 PWs)   bands (ev):

    -2.0596   0.1867   6.9244   7.8583   9.8136

     occupation numbers 
     1.0000   0.9020   0.0000   0.0000   0.0000

          k = 0.0833 0.0833-0.5000 (  1806 PWs)   bands (ev):

    -1.5833  -0.4424   7.1861   8.3287   9.2396

     occupation numbers 
     1.0000   1.0013   0.0000   0.0000   0.0000

          k = 0.0833 0.1667 0.1667 (  1812 PWs)   bands (ev):

    -3.4272   4.0222   4.5589   6.3417   9.8604

     occupation numbers 
     1.0000   0.0000   0.0000   0.0000   0.0000

          k = 0.0833 0.1667 0.2500 (  1811 PWs)   bands (ev):

    -3.0277   2.8132   4.7070   6.6787  10.0373

     occupation numbers 
     1.0000   0.0000   0.0000   0.0000   0.0000

          k = 0.0833 0.1667 0.3333 (  1812 PWs)   bands (ev):

    -2.4795   1.5288   5.1794   7.1626   9.2494

     occupation numbers 
     1.0000   0.0000   0.0000   0.0000   0.0000

          k = 0.0833 0.1667 0.4167 (  1803 PWs)   bands (ev):

    -1.8174   0.4148   5.7278   7.6864   8.3453

     occupation numbers 
     1.0000   0.3188   0.0000   0.0000   0.0000

          k = 0.0833 0.1667-0.5000 (  1800 PWs)   bands (ev):

    -1.3379  -0.2163   6.0538   7.6950   8.2389

     occupation numbers 
     1.0000   1.0260   0.0000   0.0000   0.0000

          k = 0.0833 0.2500 0.2500 (  1816 PWs)   bands (ev):

    -2.6286   2.9390   3.5336   6.9974   9.0756

     occupation numbers 
     1.0000   0.0000   0.0000   0.0000   0.0000

          k = 0.0833 0.2500 0.3333 (  1807 PWs)   bands (ev):

    -2.0805   1.8870   3.7921   7.3288   8.0249

     occupation numbers 
     1.0000   0.0000   0.0000   0.0000   0.0000

          k = 0.0833 0.2500 0.4167 (  1801 PWs)   bands (ev):

    -1.4169   0.7886   4.3569   6.7090   8.1937

     occupation numbers 
     1.0000   0.0040   0.0000   0.0000   0.0000

          k = 0.0833 0.2500-0.5000 (  1798 PWs)   bands (ev):

    -0.9314   0.1545   4.7216   6.2171   8.5452

     occupation numbers 
     1.0000   0.9624   0.0000   0.0000   0.0000

          k = 0.0833 0.3333 0.3333 (  1803 PWs)   bands (ev):

    -1.5320   2.1651   2.7340   6.4718   8.1055

     occupation numbers 
     1.0000   0.0000   0.0000   0.0000   0.0000

          k = 0.0833 0.3333 0.4167 (  1802 PWs)   bands (ev):

    -0.8655   1.2869   3.0904   5.4510   8.6490

     occupation numbers 
     1.0000   0.0000   0.0000   0.0000   0.0000

          k = 0.0833 0.3333-0.5000 (  1794 PWs)   bands (ev):

    -0.3685   0.6529   3.4573   4.9232   9.0194

     occupation numbers 
     1.0042   0.0295   0.0000   0.0000   0.0000

          k = 0.0833 0.4167 0.4167 (  1788 PWs)   bands (ev):

    -0.1896   1.7009   2.1456   4.4029   9.2195

     occupation numbers 
     1.0333   0.0000   0.0000   0.0000   0.0000

          k = 0.0833 0.4167-0.5000 (  1792 PWs)   bands (ev):

     0.3368   1.2152   2.3221   3.8850   9.5970

     occupation numbers 
     0.5161   0.0000   0.0000   0.0000   0.0000

          k = 0.0833-0.5000-0.5000 (  1784 PWs)   bands (ev):

     0.9682   1.5461   1.5462   3.3922   9.9988

     occupation numbers 
     0.0001   0.0000   0.0000   0.0000   0.0000

          k = 0.1667 0.1667 0.1667 (  1821 PWs)   bands (ev):

    -3.1856   4.2383   4.2384   5.3286  11.5134

     occupation numbers 
     1.0000   0.0000   0.0000   0.0000   0.0000

          k = 0.1667 0.1667 0.2500 (  1810 PWs)   bands (ev):

    -2.7864   3.0208   4.5904   5.4786  10.8121

     occupation numbers 
     1.0000   0.0000   0.0000   0.0000   0.0000

          k = 0.1667 0.1667 0.3333 (  1806 PWs)   bands (ev):

    -2.2384   1.7520   5.0567   5.9751   9.6355

     occupation numbers 
     1.0000   0.0000   0.0000   0.0000   0.0000

          k = 0.1667 0.1667 0.4167 (  1802 PWs)   bands (ev):

    -1.5757   0.6424   5.5627   6.6340   8.5573

     occupation numbers 
     1.0000   0.0337   0.0000   0.0000   0.0000

          k = 0.1667 0.1667-0.5000 (  1810 PWs)   bands (ev):

    -1.0930   0.0095   5.8367   7.2095   7.8390

     occupation numbers 
     1.0000   1.0827   0.0000   0.0000   0.0000

          k = 0.1667 0.2500 0.2500 (  1814 PWs)   bands (ev):

    -2.3875   3.1566   3.6911   5.5313   9.3326

     occupation numbers 
     1.0000   0.0000   0.0000   0.0000   0.0000

          k = 0.1667 0.2500 0.3333 (  1806 PWs)   bands (ev):

    -1.8398   2.1085   3.9708   5.9915   8.1033

     occupation numbers 
     1.0000   0.0000   0.0000   0.0000   0.0000

          k = 0.1667 0.2500 0.4167 (  1805 PWs)   bands (ev):

    -1.1759   1.0151   4.5195   6.5052   7.1706

     occupation numbers 
     1.0000   0.0000   0.0000   0.0000   0.0000

          k = 0.1667 0.2500-0.5000 (  1792 PWs)   bands (ev):

    -0.6874   0.3796   4.8573   6.4413   7.1577

     occupation numbers 
     1.0000   0.4032   0.0000   0.0000   0.0000

          k = 0.1667 0.3333 0.3333 (  1804 PWs)   bands (ev):

    -1.2919   2.3838   2.9486   6.2857   7.0075

     occupation numbers 
     1.0000   0.0000   0.0000   0.0000   0.0000

          k = 0.1667 0.3333 0.4167 (  1797 PWs)   bands (ev):

    -0.6253   1.5114   3.3015   5.6506   7.1913

     occupation numbers 
     1.0000   0.0000   0.0000   0.0000   0.0000

          k = 0.1667 0.3333-0.5000 (  1782 PWs)   bands (ev):

    -0.1257   0.8769   3.6596   5.1512   7.5780

     occupation numbers 
     1.0540   0.0008   0.0000   0.0000   0.0000

          k = 0.1667 0.4167 0.4167 (  1789 PWs)   bands (ev):

     0.0499   1.9201   2.3719   4.6275   7.7548

     occupation numbers 
     1.0720   0.0000   0.0000   0.0000   0.0000

          k = 0.1667 0.4167-0.5000 (  1790 PWs)   bands (ev):

     0.5785   1.4370   2.5430   4.1129   8.1714

     occupation numbers 
     0.0722   0.0000   0.0000   0.0000   0.0000

          k = 0.1667-0.5000-0.5000 (  1784 PWs)   bands (ev):

     1.2158   1.7655   1.7656   3.6251   8.6347

     occupation numbers 
     0.0000   0.0000   0.0000   0.0000   0.0000

          k = 0.2500 0.2500 0.2500 (  1800 PWs)   bands (ev):

    -1.9894   3.5118   3.5118   4.6563   9.5531

     occupation numbers 
     1.0000   0.0000   0.0000   0.0000   0.0000

          k = 0.2500 0.2500 0.3333 (  1804 PWs)   bands (ev):

    -1.4420   2.4625   3.9836   4.9487   8.3062

     occupation numbers 
     1.0000   0.0000   0.0000   0.0000   0.0000

          k = 0.2500 0.2500 0.4167 (  1801 PWs)   bands (ev):

    -0.7773   1.3857   4.5002   5.5879   7.3216

     occupation numbers 
     1.0000   0.0000   0.0000   0.0000   0.0000

          k = 0.2500 0.2500-0.5000 (  1800 PWs)   bands (ev):

    -0.2834   0.7485   4.7858   6.1930   6.7520

     occupation numbers 
     1.0127   0.0075   0.0000   0.0000   0.0000

          k = 0.2500 0.3333 0.3333 (  1796 PWs)   bands (ev):

    -0.8949   2.7410   3.2532   5.1142   7.1861

     occupation numbers 
     1.0000   0.0000   0.0000   0.0000   0.0000

          k = 0.2500 0.3333 0.4167 (  1793 PWs)   bands (ev):

    -0.2283   1.8781   3.6149   5.6040   6.2469

     occupation numbers 
     1.0231   0.0000   0.0000   0.0000   0.0000

          k = 0.2500 0.3333-0.5000 (  1798 PWs)   bands (ev):

     0.2761   1.2437   3.9490   5.5220   6.2614

     occupation numbers 
     0.6833   0.0000   0.0000   0.0000   0.0000

          k = 0.2500 0.4167 0.4167 (  1788 PWs)   bands (ev):

     0.4456   2.2785   2.7351   4.9794   6.3903

     occupation numbers 
     0.2535   0.0000   0.0000   0.0000   0.0000

          k = 0.2500 0.4167-0.5000 (  1792 PWs)   bands (ev):

     0.9780   1.8000   2.8986   4.4903   6.8071

     occupation numbers 
     0.0001   0.0000   0.0000   0.0000   0.0000

          k = 0.2500-0.5000-0.5000 (  1788 PWs)   bands (ev):

     1.6240   2.1243   2.1245   4.0063   7.2855

     occupation numbers 
     0.0000   0.0000   0.0000   0.0000   0.0000

          k = 0.3333 0.3333 0.3333 (  1794 PWs)   bands (ev):

    -0.3489   3.2169   3.2174   4.4194   7.5120

     occupation numbers 
     1.0055   0.0000   0.0000   0.0000   0.0000

          k = 0.3333 0.3333 0.4167 (  1796 PWs)   bands (ev):

     0.3183   2.3638   3.7414   4.8414   6.5239

     occupation numbers 
     0.5668   0.0000   0.0000   0.0000   0.0000

          k = 0.3333 0.3333-0.5000 (  1796 PWs)   bands (ev):

     0.8318   1.7354   4.0353   5.4126   5.9878

     occupation numbers 
     0.0019   0.0000   0.0000   0.0000   0.0000

          k = 0.3333 0.4167 0.4167 (  1800 PWs)   bands (ev):

     0.9901   2.7569   3.1757   5.0489   5.6304

     occupation numbers 
     0.0001   0.0000   0.0000   0.0000   0.0000

          k = 0.3333 0.4167-0.5000 (  1804 PWs)   bands (ev):

     1.5286   2.2854   3.3425   4.9939   5.6063

     occupation numbers 
     0.0000   0.0000   0.0000   0.0000   0.0000

          k = 0.3333-0.5000-0.5000 (  1812 PWs)   bands (ev):

     2.1850   2.6035   2.6038   4.5167   6.0354

     occupation numbers 
     0.0000   0.0000   0.0000   0.0000   0.0000

          k = 0.4167 0.4167 0.4167 (  1796 PWs)   bands (ev):

     1.6598   3.2862   3.2873   4.5628   6.0369

     occupation numbers 
     0.0000   0.0000   0.0000   0.0000   0.0000

          k = 0.4167 0.4167-0.5000 (  1804 PWs)   bands (ev):

     2.2138   2.8267   3.5852   4.8545   5.5509

     occupation numbers 
     0.0000   0.0000   0.0000   0.0000   0.0000

          k = 0.4167-0.5000-0.5000 (  1804 PWs)   bands (ev):

     2.8755   3.1344   3.1344   4.9279   5.0874

     occupation numbers 
     0.0000   0.0000   0.0000   0.0000   0.0000

          k =-0.5000-0.5000-0.5000 (  1856 PWs)   bands (ev):

     3.4352   3.4352   3.4352   4.2233   5.4163

     occupation numbers 
     0.0000   0.0000   0.0000   0.0000   0.0000

     the Fermi energy is     0.3806 ev

!    total energy              =     -33.56484158 Ry
     total all-electron energy =      -400.619049 Ry
     estimated scf accuracy    <       0.00000054 Ry
     smearing contrib. (-TS)   =      -0.00031076 Ry
     internal energy E=F+TS    =     -33.56453082 Ry

     The total energy is F=E-TS. E is the sum of the following terms:
     one-electron contribution =       0.82915105 Ry
     hartree contribution      =       0.02045106 Ry
     xc contribution           =      -1.44397688 Ry
     ewald contribution        =      -1.69175562 Ry
     one-center paw contrib.   =     -31.27840044 Ry
      -> PAW hartree energy AE =       0.49188011 Ry
      -> PAW hartree energy PS =      -0.49049084 Ry
      -> PAW xc energy AE      =     -32.42956417 Ry
      -> PAW xc energy PS      =       1.14977447 Ry
      -> total E_H with PAW    =       0.02184033 Ry
      -> total E_XC with PAW   =     -32.72376658 Ry

     convergence has been achieved in   3 iterations

     Forces acting on atoms (cartesian axes, Ry/au):

     atom    1 type  1   force =     0.00000000    0.00000000    0.00000000
     The non-local contrib.  to forces
     atom    1 type  1   force =     0.00000000    0.00000000    0.00000000
     The ionic contribution  to forces
     atom    1 type  1   force =    -0.00000000   -0.00000000   -0.00000000
     The local contribution  to forces
     atom    1 type  1   force =    -0.00000000   -0.00000000    0.00000000
     The core correction contribution to forces
     atom    1 type  1   force =     0.00000000    0.00000000    0.00000000
     The Hubbard contrib.    to forces
     atom    1 type  1   force =     0.00000000    0.00000000    0.00000000
     The SCF correction term to forces
     atom    1 type  1   force =    -0.00000000   -0.00000000    0.00000000

     Total force =     0.000000     Total SCF correction =     0.000000


     Computing stress (Cartesian axis) and pressure

          total   stress  (Ry/bohr**3)                   (kbar)     P=      -38.16
  -0.00025940   0.00000000   0.00000000          -38.16        0.00        0.00
   0.00000000  -0.00025940   0.00000000            0.00      -38.16        0.00
   0.00000000   0.00000000  -0.00025940            0.00        0.00      -38.16

     kinetic stress (kbar)    157.44      0.00      0.00
                                0.00    157.44      0.00
                                0.00      0.00    157.44

     local   stress (kbar)    -48.39      0.00      0.00
                                0.00    -48.39      0.00
                                0.00      0.00    -48.39

     nonloc. stress (kbar)    259.27      0.00      0.00
                                0.00    259.27      0.00
                                0.00      0.00    259.27

     hartree stress (kbar)      3.32      0.00      0.00
                                0.00      3.32      0.00
                                0.00      0.00      3.32

     exc-cor stress (kbar)    217.91      0.00      0.00
                                0.00    217.91     -0.00
                                0.00     -0.00    217.91

     corecor stress (kbar)   -352.94      0.00     -0.00
                                0.00   -352.94     -0.00
                               -0.00     -0.00   -352.94

     ewald   stress (kbar)   -274.77     -0.00     -0.00
                               -0.00   -274.77     -0.00
                               -0.00     -0.00   -274.77

     hubbard stress (kbar)      0.00      0.00      0.00
                                0.00      0.00      0.00
                                0.00      0.00      0.00

     DFT-D   stress (kbar)      0.00      0.00      0.00
                                0.00      0.00      0.00
                                0.00      0.00      0.00

     XDM     stress (kbar)      0.00      0.00      0.00
                                0.00      0.00      0.00
                                0.00      0.00      0.00

     dft-nl  stress (kbar)      0.00      0.00      0.00
                                0.00      0.00      0.00
                                0.00      0.00      0.00

     TS-vdW  stress (kbar)      0.00      0.00      0.00
                                0.00      0.00      0.00
                                0.00      0.00      0.00

     MDB     stress (kbar)      0.00      0.00      0.00
                                0.00      0.00      0.00
                                0.00      0.00      0.00

     3D-RISM stress (kbar)      0.00      0.00      0.00
                                0.00      0.00      0.00
                                0.00      0.00      0.00


     BFGS Geometry Optimization
     Energy error            =      0.0E+00 Ry
     Gradient error          =      0.0E+00 Ry/Bohr
     Cell gradient error     =      3.8E+01 kbar

     number of scf cycles    =   1
     number of bfgs steps    =   0

     enthalpy           new  =     -33.5648415752 Ry

     new trust radius        =       0.0225358480 bohr
     new conv_thr            =       0.0000010000 Ry

     new unit-cell volume =    296.07731 a.u.^3 (    43.87413 Ang^3 )
     density =      0.91989 g/cm^3

CELL_PARAMETERS (alat=  6.70852800)
   0.993515103   0.000000000   0.000000000
   0.000000000   0.993515103   0.000000000
   0.000000000   0.000000000   0.993515103

ATOMIC_POSITIONS (alat)
Mg            0.0000000000        0.0000000000        0.0000000000



     Writing config-only to output data dir ./tmp/Mg_vc-relax.save/
     NEW-OLD atomic charge density approx. for the potential
     extrapolated charge    1.96060, renormalised to    2.00000

     total cpu time spent up to now is       22.2 secs

     Self-consistent Calculation

     iteration #  1     ecut=    50.00 Ry     beta= 0.70
     Davidson diagonalization with overlap

---- Real-time Memory Report at c_bands before calling an iterative solver
           517 MiB given to the printing process from OS
             0 MiB allocation reported by mallinfo(arena+hblkhd)
         89827 MiB available memory on the node where the printing process lives
------------------
     c_bands:  1 eigenvalues not converged
     c_bands:  1 eigenvalues not converged
     ethr =  1.00E-06,  avg # of iterations =  5.7

     total cpu time spent up to now is       24.9 secs

     total energy              =     -33.56639086 Ry
     estimated scf accuracy    <       0.00000419 Ry

     iteration #  2     ecut=    50.00 Ry     beta= 0.70
     Davidson diagonalization with overlap

---- Real-time Memory Report at c_bands before calling an iterative solver
           517 MiB given to the printing process from OS
             0 MiB allocation reported by mallinfo(arena+hblkhd)
         89829 MiB available memory on the node where the printing process lives
------------------
     ethr =  2.09E-07,  avg # of iterations =  2.2

     total cpu time spent up to now is       26.6 secs

     End of self-consistent calculation

          k = 0.0000 0.0000 0.0000 (  1791 PWs)   bands (ev):

    -4.1413   7.1637   7.2004   7.2004   7.2004

     occupation numbers 
     1.0000   0.0000   0.0000   0.0000   0.0000

          k = 0.0000 0.0000 0.0839 (  1811 PWs)   bands (ev):

    -4.0591   5.5926   7.2360   7.2723   7.2723

     occupation numbers 
     1.0000   0.0000   0.0000   0.0000   0.0000

          k = 0.0000 0.0000 0.1678 (  1811 PWs)   bands (ev):

    -3.8132   4.0191   7.4488   7.4871   7.4871

     occupation numbers 
     1.0000   0.0000   0.0000   0.0000   0.0000

          k = 0.0000 0.0000 0.2516 (  1803 PWs)   bands (ev):

    -3.4071   2.5515   7.7889   7.8398   7.8398

     occupation numbers 
     1.0000   0.0000   0.0000   0.0000   0.0000

          k = 0.0000 0.0000 0.3355 (  1783 PWs)   bands (ev):

    -2.8495   1.2260   8.2203   8.3162   8.3162

     occupation numbers 
     1.0000   0.0000   0.0000   0.0000   0.0000

          k = 0.0000 0.0000 0.4194 (  1807 PWs)   bands (ev):

    -2.1753   0.0880   8.6472   8.8597   8.8597

     occupation numbers 
     1.0000   1.0817   0.0000   0.0000   0.0000

          k = 0.0000 0.0000-0.5033 (  1800 PWs)   bands (ev):

    -1.6846  -0.5577   8.8493   9.1878   9.1878

     occupation numbers 
     1.0000   1.0000   0.0000   0.0000   0.0000

          k = 0.0000 0.0839 0.0839 (  1805 PWs)   bands (ev):

    -3.9768   5.4631   5.9355   7.3442   8.0035

     occupation numbers 
     1.0000   0.0000   0.0000   0.0000   0.0000

          k = 0.0000 0.0839 0.1678 (  1816 PWs)   bands (ev):

    -3.7311   4.0797   5.9715   7.5588   8.2943

     occupation numbers 
     1.0000   0.0000   0.0000   0.0000   0.0000

          k = 0.0000 0.0839 0.2516 (  1808 PWs)   bands (ev):

    -3.3250   2.6248   6.3208   7.9112   8.6629

     occupation numbers 
     1.0000   0.0000   0.0000   0.0000   0.0000

          k = 0.0000 0.0839 0.3355 (  1806 PWs)   bands (ev):

    -2.7675   1.3027   6.7996   8.3869   9.1187

     occupation numbers 
     1.0000   0.0000   0.0000   0.0000   0.0000

          k = 0.0000 0.0839 0.4194 (  1804 PWs)   bands (ev):

    -2.0931   0.1656   7.3329   8.9293   9.4993

     occupation numbers 
     1.0000   1.0407   0.0000   0.0000   0.0000

          k = 0.0000 0.0839-0.5033 (  1798 PWs)   bands (ev):

    -1.6013  -0.4808   7.6372   9.2563   9.4022

     occupation numbers 
     1.0000   1.0002   0.0000   0.0000   0.0000

          k = 0.0000 0.1678 0.1678 (  1807 PWs)   bands (ev):

    -3.4855   4.0540   4.6579   7.7726   8.6300

     occupation numbers 
     1.0000   0.0000   0.0000   0.0000   0.0000

          k = 0.0000 0.1678 0.2516 (  1805 PWs)   bands (ev):

    -3.0797   2.8341   4.7846   8.1239   8.9600

     occupation numbers 
     1.0000   0.0000   0.0000   0.0000   0.0000

          k = 0.0000 0.1678 0.3355 (  1807 PWs)   bands (ev):

    -2.5224   1.5302   5.2674   8.5978   8.9744

     occupation numbers 
     1.0000   0.0000   0.0000   0.0000   0.0000

          k = 0.0000 0.1678 0.4194 (  1803 PWs)   bands (ev):

    -1.8473   0.3973   5.8399   8.2233   9.1372

     occupation numbers 
     1.0000   0.5438   0.0000   0.0000   0.0000

          k = 0.0000 0.1678-0.5033 (  1816 PWs)   bands (ev):

    -1.3522  -0.2513   6.1952   7.7513   9.4610

     occupation numbers 
     1.0000   1.0079   0.0000   0.0000   0.0000

          k = 0.0000 0.2516 0.2516 (  1799 PWs)   bands (ev):

    -2.6743   2.9573   3.5799   8.4732   8.7935

     occupation numbers 
     1.0000   0.0000   0.0000   0.0000   0.0000

          k = 0.0000 0.2516 0.3355 (  1807 PWs)   bands (ev):

    -2.1172   1.8937   3.8375   7.7914   8.9440

     occupation numbers 
     1.0000   0.0000   0.0000   0.0000   0.0000

          k = 0.0000 0.2516 0.4194 (  1807 PWs)   bands (ev):

    -1.4408   0.7769   4.4174   6.7816   9.4787

     occupation numbers 
     1.0000   0.0142   0.0000   0.0000   0.0000

          k = 0.0000 0.2516-0.5033 (  1818 PWs)   bands (ev):

    -0.9395   0.1252   4.8001   6.2520   9.7983

     occupation numbers 
     1.0000   1.0697   0.0000   0.0000   0.0000

          k = 0.0000 0.3355 0.3355 (  1805 PWs)   bands (ev):

    -1.5599   2.1739   2.7631   6.5478   9.4105

     occupation numbers 
     1.0000   0.0000   0.0000   0.0000   0.0000

          k = 0.0000 0.3355 0.4194 (  1798 PWs)   bands (ev):

    -0.8806   1.2837   3.1262   5.4874   9.9400

     occupation numbers 
     1.0000   0.0000   0.0000   0.0000   0.0000

          k = 0.0000 0.3355-0.5033 (  1796 PWs)   bands (ev):

    -0.3676   0.6321   3.5079   4.9394  10.2563

     occupation numbers 
     1.0014   0.0869   0.0000   0.0000   0.0000

          k = 0.0000 0.4194 0.4194 (  1790 PWs)   bands (ev):

    -0.1924   1.7040   2.1685   4.4169  10.4673

     occupation numbers 
     1.0160   0.0000   0.0000   0.0000   0.0000

          k = 0.0000 0.4194-0.5033 (  1782 PWs)   bands (ev):

     0.3506   1.2064   2.3513   3.8807  10.7872

     occupation numbers 
     0.6725   0.0000   0.0000   0.0000   0.0000

          k = 0.0000-0.5033-0.5033 (  1772 PWs)   bands (ev):

     1.0078   1.5473   1.5473   3.3781  11.1196

     occupation numbers 
     0.0003   0.0000   0.0000   0.0000   0.0000

          k = 0.0839 0.0839 0.0839 (  1812 PWs)   bands (ev):

    -3.8946   5.5362   5.5362   6.4831   9.2744

     occupation numbers 
     1.0000   0.0000   0.0000   0.0000   0.0000

          k = 0.0839 0.0839 0.1678 (  1813 PWs)   bands (ev):

    -3.6489   4.1419   5.7533   6.5322   9.4815

     occupation numbers 
     1.0000   0.0000   0.0000   0.0000   0.0000

          k = 0.0839 0.0839 0.2516 (  1811 PWs)   bands (ev):

    -3.2430   2.6980   6.1065   6.8870   9.8107

     occupation numbers 
     1.0000   0.0000   0.0000   0.0000   0.0000

          k = 0.0839 0.0839 0.3355 (  1807 PWs)   bands (ev):

    -2.6856   1.3793   6.5722   7.4034  10.1996

     occupation numbers 
     1.0000   0.0000   0.0000   0.0000   0.0000

          k = 0.0839 0.0839 0.4194 (  1802 PWs)   bands (ev):

    -2.0109   0.2433   7.0731   8.0413   9.9839

     occupation numbers 
     1.0000   0.9298   0.0000   0.0000   0.0000

          k = 0.0839 0.0839-0.5033 (  1806 PWs)   bands (ev):

    -1.5181  -0.4039   7.3417   8.5344   9.3966

     occupation numbers 
     1.0000   1.0008   0.0000   0.0000   0.0000

          k = 0.0839 0.1678 0.1678 (  1812 PWs)   bands (ev):

    -3.4034   4.1278   4.6788   6.4924  10.0388

     occupation numbers 
     1.0000   0.0000   0.0000   0.0000   0.0000

          k = 0.0839 0.1678 0.2516 (  1811 PWs)   bands (ev):

    -2.9977   2.9072   4.8277   6.8335  10.2138

     occupation numbers 
     1.0000   0.0000   0.0000   0.0000   0.0000

          k = 0.0839 0.1678 0.3355 (  1812 PWs)   bands (ev):

    -2.4405   1.6065   5.3075   7.3240   9.4142

     occupation numbers 
     1.0000   0.0000   0.0000   0.0000   0.0000

          k = 0.0839 0.1678 0.4194 (  1803 PWs)   bands (ev):

    -1.7653   0.4747   5.8667   7.8511   8.5075

     occupation numbers 
     1.0000   0.3434   0.0000   0.0000   0.0000

          k = 0.0839 0.1678-0.5033 (  1800 PWs)   bands (ev):

    -1.2692  -0.1745   6.2027   7.8267   8.4388

     occupation numbers 
     1.0000   1.0194   0.0000   0.0000   0.0000

          k = 0.0839 0.2516 0.2516 (  1816 PWs)   bands (ev):

    -2.5925   3.0315   3.6450   7.1543   9.2404

     occupation numbers 
     1.0000   0.0000   0.0000   0.0000   0.0000

          k = 0.0839 0.2516 0.3355 (  1807 PWs)   bands (ev):

    -2.0355   1.9694   3.9051   7.4797   8.1878

     occupation numbers 
     1.0000   0.0000   0.0000   0.0000   0.0000

          k = 0.0839 0.2516 0.4194 (  1801 PWs)   bands (ev):

    -1.3590   0.8540   4.4811   6.8347   8.3802

     occupation numbers 
     1.0000   0.0043   0.0000   0.0000   0.0000

          k = 0.0839 0.2516-0.5033 (  1798 PWs)   bands (ev):

    -0.8568   0.2018   4.8574   6.3288   8.7443

     occupation numbers 
     1.0000   0.9983   0.0000   0.0000   0.0000

          k = 0.0839 0.3355 0.3355 (  1803 PWs)   bands (ev):

    -1.4784   2.2484   2.8379   6.5974   8.2853

     occupation numbers 
     1.0000   0.0000   0.0000   0.0000   0.0000

          k = 0.0839 0.3355 0.4194 (  1802 PWs)   bands (ev):

    -0.7992   1.3601   3.1995   5.5595   8.8433

     occupation numbers 
     1.0000   0.0000   0.0000   0.0000   0.0000

          k = 0.0839 0.3355-0.5033 (  1794 PWs)   bands (ev):

    -0.2854   0.7084   3.5784   5.0168   9.2268

     occupation numbers 
     1.0050   0.0358   0.0000   0.0000   0.0000

          k = 0.0839 0.4194 0.4194 (  1788 PWs)   bands (ev):

    -0.1113   1.7787   2.2458   4.4934   9.4259

     occupation numbers 
     1.0355   0.0000   0.0000   0.0000   0.0000

          k = 0.0839 0.4194-0.5033 (  1792 PWs)   bands (ev):

     0.4325   1.2819   2.4268   3.9591   9.8220

     occupation numbers 
     0.4488   0.0000   0.0000   0.0000   0.0000

          k = 0.0839-0.5033-0.5033 (  1784 PWs)   bands (ev):

     1.0914   1.6221   1.6221   3.4573  10.2471

     occupation numbers 
     0.0000   0.0000   0.0000   0.0000   0.0000

          k = 0.1678 0.1678 0.1678 (  1821 PWs)   bands (ev):

    -3.1581   4.3471   4.3471   5.4731  11.7035

     occupation numbers 
     1.0000   0.0000   0.0000   0.0000   0.0000

          k = 0.1678 0.1678 0.2516 (  1810 PWs)   bands (ev):

    -2.7528   3.1172   4.7047   5.6228  11.0128

     occupation numbers 
     1.0000   0.0000   0.0000   0.0000   0.0000

          k = 0.1678 0.1678 0.3355 (  1806 PWs)   bands (ev):

    -2.1959   1.8328   5.1788   6.1258   9.5581

     occupation numbers 
     1.0000   0.0000   0.0000   0.0000   0.0000

          k = 0.1678 0.1678 0.4194 (  1802 PWs)   bands (ev):

    -1.5201   0.7056   5.6951   6.7970   8.5771

     occupation numbers 
     1.0000   0.0370   0.0000   0.0000   0.0000

          k = 0.1678 0.1678-0.5033 (  1810 PWs)   bands (ev):

    -1.0209   0.0545   5.9779   7.4020   7.9796

     occupation numbers 
     1.0000   1.0829   0.0000   0.0000   0.0000

          k = 0.1678 0.2516 0.2516 (  1814 PWs)   bands (ev):

    -2.3479   3.2524   3.8018   5.6729   9.4986

     occupation numbers 
     1.0000   0.0000   0.0000   0.0000   0.0000

          k = 0.1678 0.2516 0.3355 (  1806 PWs)   bands (ev):

    -1.7914   2.1939   4.0846   6.1383   8.2546

     occupation numbers 
     1.0000   0.0000   0.0000   0.0000   0.0000

          k = 0.1678 0.2516 0.4194 (  1805 PWs)   bands (ev):

    -1.1146   1.0838   4.6440   6.6503   7.3202

     occupation numbers 
     1.0000   0.0000   0.0000   0.0000   0.0000

          k = 0.1678 0.2516-0.5033 (  1792 PWs)   bands (ev):

    -0.6095   0.4302   4.9924   6.5568   7.3420

     occupation numbers 
     1.0000   0.4548   0.0000   0.0000   0.0000

          k = 0.1678 0.3355 0.3355 (  1804 PWs)   bands (ev):

    -1.2349   2.4703   3.0548   6.4248   7.1572

     occupation numbers 
     1.0000   0.0000   0.0000   0.0000   0.0000

          k = 0.1678 0.3355 0.4194 (  1797 PWs)   bands (ev):

    -0.5558   1.5878   3.4130   5.7609   7.3632

     occupation numbers 
     1.0000   0.0000   0.0000   0.0000   0.0000

          k = 0.1678 0.3355-0.5033 (  1782 PWs)   bands (ev):

    -0.0395   0.9356   3.7826   5.2475   7.7669

     occupation numbers 
     1.0594   0.0010   0.0000   0.0000   0.0000

          k = 0.1678 0.4194 0.4194 (  1789 PWs)   bands (ev):

     0.1312   2.0011   2.4750   4.7196   7.9396

     occupation numbers 
     1.0666   0.0000   0.0000   0.0000   0.0000

          k = 0.1678 0.4194-0.5033 (  1790 PWs)   bands (ev):

     0.6769   1.5070   2.6506   4.1924   8.3758

     occupation numbers 
     0.0525   0.0000   0.0000   0.0000   0.0000

          k = 0.1678-0.5033-0.5033 (  1784 PWs)   bands (ev):

     1.3413   1.8447   1.8447   3.6933   8.8627

     occupation numbers 
     0.0000   0.0000   0.0000   0.0000   0.0000

          k = 0.2516 0.2516 0.2516 (  1800 PWs)   bands (ev):

    -1.9437   3.6131   3.6131   4.7968   9.7122

     occupation numbers 
     1.0000   0.0000   0.0000   0.0000   0.0000

          k = 0.2516 0.2516 0.3355 (  1804 PWs)   bands (ev):

    -1.3877   2.5527   4.0933   5.0893   8.4471

     occupation numbers 
     1.0000   0.0000   0.0000   0.0000   0.0000

          k = 0.2516 0.2516 0.4194 (  1801 PWs)   bands (ev):

    -0.7104   1.4599   4.6210   5.7398   7.4456

     occupation numbers 
     1.0000   0.0000   0.0000   0.0000   0.0000

          k = 0.2516 0.2516-0.5033 (  1800 PWs)   bands (ev):

    -0.1998   0.8047   4.9153   6.3736   6.8733

     occupation numbers 
     1.0147   0.0094   0.0000   0.0000   0.0000

          k = 0.2516 0.3355 0.3355 (  1796 PWs)   bands (ev):

    -0.8323   2.8331   3.3607   5.2542   7.3236

     occupation numbers 
     1.0000   0.0000   0.0000   0.0000   0.0000

          k = 0.2516 0.3355 0.4194 (  1793 PWs)   bands (ev):

    -0.1535   1.9600   3.7291   5.7400   6.3823

     occupation numbers 
     1.0241   0.0000   0.0000   0.0000   0.0000

          k = 0.2516 0.3355-0.5033 (  1798 PWs)   bands (ev):

     0.3675   1.3080   4.0735   5.6242   6.4378

     occupation numbers 
     0.6261   0.0000   0.0000   0.0000   0.0000

          k = 0.2516 0.4194 0.4194 (  1788 PWs)   bands (ev):

     0.5318   2.3651   2.8426   5.0768   6.5581

     occupation numbers 
     0.2238   0.0000   0.0000   0.0000   0.0000

          k = 0.2516 0.4194-0.5033 (  1792 PWs)   bands (ev):

     1.0811   1.8756   3.0109   4.5744   6.9938

     occupation numbers 
     0.0001   0.0000   0.0000   0.0000   0.0000

          k = 0.2516-0.5033-0.5033 (  1788 PWs)   bands (ev):

     1.7533   2.2091   2.2091   4.0797   7.4997

     occupation numbers 
     0.0000   0.0000   0.0000   0.0000   0.0000

          k = 0.3355 0.3355 0.3355 (  1794 PWs)   bands (ev):

    -0.2782   3.3174   3.3174   4.5590   7.6433

     occupation numbers 
     1.0055   0.0000   0.0000   0.0000   0.0000

          k = 0.3355 0.3355 0.4194 (  1796 PWs)   bands (ev):

     0.4006   2.4534   3.8535   4.9869   6.6324

     occupation numbers 
     0.5345   0.0000   0.0000   0.0000   0.0000

          k = 0.3355 0.3355-0.5033 (  1796 PWs)   bands (ev):

     0.9306   1.8079   4.1566   5.5850   6.0881

     occupation numbers 
     0.0011   0.0000   0.0000   0.0000   0.0000

          k = 0.3355 0.4194 0.4194 (  1800 PWs)   bands (ev):

     1.0833   2.8519   3.2870   5.1865   5.7540

     occupation numbers 
     0.0001   0.0000   0.0000   0.0000   0.0000

          k = 0.3355 0.4194-0.5033 (  1804 PWs)   bands (ev):

     1.6378   2.3693   3.4595   5.0851   5.7830

     occupation numbers 
     0.0000   0.0000   0.0000   0.0000   0.0000

          k = 0.3355-0.5033-0.5033 (  1812 PWs)   bands (ev):

     2.3188   2.6967   2.6967   4.5973   6.2384

     occupation numbers 
     0.0000   0.0000   0.0000   0.0000   0.0000

          k = 0.4194 0.4194 0.4194 (  1796 PWs)   bands (ev):

     1.7621   3.3930   3.3930   4.7181   6.1432

     occupation numbers 
     0.0000   0.0000   0.0000   0.0000   0.0000

          k = 0.4194 0.4194-0.5033 (  1804 PWs)   bands (ev):

     2.3301   2.9212   3.7016   5.0357   5.6384

     occupation numbers 
     0.0000   0.0000   0.0000   0.0000   0.0000

          k = 0.4194-0.5033-0.5033 (  1804 PWs)   bands (ev):

     3.0098   3.2395   3.2395   5.1252   5.1762

     occupation numbers 
     0.0000   0.0000   0.0000   0.0000   0.0000

          k =-0.5033-0.5033-0.5033 (  1856 PWs)   bands (ev):

     3.5500   3.5500   3.5500   4.4437   5.5105

     occupation numbers 
     0.0000   0.0000   0.0000   0.0000   0.0000

     the Fermi energy is     0.4512 ev

!    total energy              =     -33.56639419 Ry
     total all-electron energy =      -400.620602 Ry
     estimated scf accuracy    <       0.00000026 Ry
     smearing contrib. (-TS)   =      -0.00028991 Ry
     internal energy E=F+TS    =     -33.56610429 Ry

     The total energy is F=E-TS. E is the sum of the following terms:
     one-electron contribution =       0.84233685 Ry
     hartree contribution      =       0.01926968 Ry
     xc contribution           =      -1.44704894 Ry
     ewald contribution        =      -1.70279809 Ry
     one-center paw contrib.   =     -31.27786378 Ry
      -> PAW hartree energy AE =       0.50165312 Ry
      -> PAW hartree energy PS =      -0.50027017 Ry
      -> PAW xc energy AE      =     -32.43446307 Ry
      -> PAW xc energy PS      =       1.15521633 Ry
      -> total E_H with PAW    =       0.02065263 Ry
      -> total E_XC with PAW   =     -32.72629568 Ry

     convergence has been achieved in   2 iterations

     Forces acting on atoms (cartesian axes, Ry/au):

     atom    1 type  1   force =     0.00000000    0.00000000    0.00000000
     The non-local contrib.  to forces
     atom    1 type  1   force =     0.00000000    0.00000000    0.00000000
     The ionic contribution  to forces
[...]

     occupation numbers 
     1.0000   0.0000   0.0000   0.0000   0.0000

          k = 0.0000 0.3916 0.4895 (  1115 PWs)   bands (ev):

     0.9071   3.4700   6.2256   8.7283  15.8016

     occupation numbers 
     1.0000   0.0000   0.0000   0.0000   0.0000

          k = 0.0000 0.3916-0.5874 (  1102 PWs)   bands (ev):

     1.9549   2.2556   7.0974   7.6294  16.6109

     occupation numbers 
     1.0623   0.8759   0.0000   0.0000   0.0000

          k = 0.0000 0.4895 0.4895 (  1101 PWs)   bands (ev):

     1.8801   4.0183   5.0528   7.1910  16.5952

     occupation numbers 
     1.0372   0.0000   0.0000   0.0000   0.0000

          k = 0.0000 0.4895-0.5874 (  1108 PWs)   bands (ev):

     2.9263   3.1449   5.5854   6.0870  17.3563

     occupation numbers 
     0.0010   0.0000   0.0000   0.0000   0.0000

          k = 0.0000-0.5874-0.5874 (  1092 PWs)   bands (ev):

     3.8143   3.8143   4.5151   5.1997  18.0047

     occupation numbers 
     0.0000   0.0000   0.0000   0.0000   0.0000

          k = 0.0979 0.0979 0.0979 (  1108 PWs)   bands (ev):

    -3.3357   9.0007   9.0007  11.0243  14.1400

     occupation numbers 
     1.0000   0.0000   0.0000   0.0000   0.0000

          k = 0.0979 0.0979 0.1958 (  1110 PWs)   bands (ev):

    -2.9938   7.2634   9.3012  11.0201  14.4052

     occupation numbers 
     1.0000   0.0000   0.0000   0.0000   0.0000

          k = 0.0979 0.0979 0.2937 (  1121 PWs)   bands (ev):

    -2.4268   5.3842   9.7947  11.4644  14.8026

     occupation numbers 
     1.0000   0.0000   0.0000   0.0000   0.0000

          k = 0.0979 0.0979 0.3916 (  1123 PWs)   bands (ev):

    -1.6397   3.6171  10.4610  12.1499  15.0575

     occupation numbers 
     1.0000   0.0000   0.0000   0.0000   0.0000

          k = 0.0979 0.0979 0.4895 (  1117 PWs)   bands (ev):

    -0.6415   2.0212  11.2244  13.0301  14.3560

     occupation numbers 
     1.0000   1.0805   0.0000   0.0000   0.0000

          k = 0.0979 0.0979-0.5874 (  1124 PWs)   bands (ev):

     0.3854   0.7938  11.6933  13.7655  13.8645

     occupation numbers 
     1.0000   1.0000   0.0000   0.0000   0.0000

          k = 0.0979 0.1958 0.1958 (  1108 PWs)   bands (ev):

    -2.6528   7.1833   8.0977  10.8413  15.1357

     occupation numbers 
     1.0000   0.0000   0.0000   0.0000   0.0000

          k = 0.0979 0.1958 0.2937 (  1115 PWs)   bands (ev):

    -2.0874   5.6532   8.2737  11.2479  15.1813

     occupation numbers 
     1.0000   0.0000   0.0000   0.0000   0.0000

          k = 0.0979 0.1958 0.3916 (  1115 PWs)   bands (ev):

    -1.3024   3.9252   8.9399  11.8677  14.1145

     occupation numbers 
     1.0000   0.0000   0.0000   0.0000   0.0000

          k = 0.0979 0.1958 0.4895 (  1121 PWs)   bands (ev):

    -0.3066   2.3414   9.7852  12.1665  13.3418

     occupation numbers 
     1.0000   0.6596   0.0000   0.0000   0.0000

          k = 0.0979 0.1958-0.5874 (  1120 PWs)   bands (ev):

     0.7263   1.1102  10.4300  11.5846  14.1641

     occupation numbers 
     1.0000   1.0000   0.0000   0.0000   0.0000

          k = 0.0979 0.2937 0.2937 (  1112 PWs)   bands (ev):

    -1.5247   5.7543   6.8342  11.5916  13.9560

     occupation numbers 
     1.0000   0.0000   0.0000   0.0000   0.0000

          k = 0.0979 0.2937 0.3916 (  1114 PWs)   bands (ev):

    -0.7434   4.4111   7.1427  11.6608  12.9519

     occupation numbers 
     1.0000   0.0000   0.0000   0.0000   0.0000

          k = 0.0979 0.2937 0.4895 (  1118 PWs)   bands (ev):

     0.2480   2.8682   8.0058  10.5148  13.5079

     occupation numbers 
     1.0000   0.0027   0.0000   0.0000   0.0000

          k = 0.0979 0.2937-0.5874 (  1110 PWs)   bands (ev):

     1.2892   1.6351   8.8084   9.5467  14.4685

     occupation numbers 
     1.0000   1.0019   0.0000   0.0000   0.0000

          k = 0.0979 0.3916 0.3916 (  1115 PWs)   bands (ev):

     0.0326   4.7329   5.8107  10.2918  13.2960

     occupation numbers 
     1.0000   0.0000   0.0000   0.0000   0.0000

          k = 0.0979 0.3916 0.4895 (  1115 PWs)   bands (ev):

     1.0168   3.5747   6.3227   8.8191  14.1264

     occupation numbers 
     1.0000   0.0000   0.0000   0.0000   0.0000

          k = 0.0979 0.3916-0.5874 (  1106 PWs)   bands (ev):

     2.0652   2.3606   7.1843   7.7351  15.0631

     occupation numbers 
     1.0828   0.6064   0.0000   0.0000   0.0000

          k = 0.0979 0.4895 0.4895 (  1105 PWs)   bands (ev):

     1.9884   4.1205   5.1573   7.2911  14.9652

     occupation numbers 
     1.0728   0.0000   0.0000   0.0000   0.0000

          k = 0.0979 0.4895-0.5874 (  1108 PWs)   bands (ev):

     3.0337   3.2491   5.6849   6.1939  15.8414

     occupation numbers 
     0.0001   0.0000   0.0000   0.0000   0.0000

          k = 0.0979-0.5874-0.5874 (  1104 PWs)   bands (ev):

     3.9166   3.9166   4.6222   5.3087  16.4577

     occupation numbers 
     0.0000   0.0000   0.0000   0.0000   0.0000

          k = 0.1958 0.1958 0.1958 (  1093 PWs)   bands (ev):

    -2.3128   7.4869   7.4869   9.6599  16.9826

     occupation numbers 
     1.0000   0.0000   0.0000   0.0000   0.0000

          k = 0.1958 0.1958 0.2937 (  1114 PWs)   bands (ev):

    -1.7491   5.9286   7.9885   9.7762  15.6062

     occupation numbers 
     1.0000   0.0000   0.0000   0.0000   0.0000

          k = 0.1958 0.1958 0.3916 (  1115 PWs)   bands (ev):

    -0.9663   4.2320   8.6748  10.4020  13.9629

     occupation numbers 
     1.0000   0.0000   0.0000   0.0000   0.0000

          k = 0.1958 0.1958 0.4895 (  1119 PWs)   bands (ev):

     0.0269   2.6603   9.4901  11.2660  12.5437

     occupation numbers 
     1.0000   0.0542   0.0000   0.0000   0.0000

          k = 0.1958 0.1958-0.5874 (  1120 PWs)   bands (ev):

     1.0650   1.4264  10.0397  11.7902  12.0104

     occupation numbers 
     1.0000   1.0000   0.0000   0.0000   0.0000

          k = 0.1958 0.2937 0.2937 (  1107 PWs)   bands (ev):

    -1.1881   6.0596   6.9646   9.7293  14.1790

     occupation numbers 
     1.0000   0.0000   0.0000   0.0000   0.0000

          k = 0.1958 0.2937 0.3916 (  1112 PWs)   bands (ev):

    -0.4092   4.7162   7.3429  10.2799  12.5735

     occupation numbers 
     1.0000   0.0000   0.0000   0.0000   0.0000

          k = 0.1958 0.2937 0.4895 (  1116 PWs)   bands (ev):

     0.5793   3.1848   8.1930  10.5428  11.7097

     occupation numbers 
     1.0000   0.0000   0.0000   0.0000   0.0000

          k = 0.1958 0.2937-0.5874 (  1112 PWs)   bands (ev):

     1.6241   1.9507   8.9086   9.8574  12.4208

     occupation numbers 
     1.0016   1.0609   0.0000   0.0000   0.0000

          k = 0.1958 0.3916 0.3916 (  1116 PWs)   bands (ev):

     0.3641   5.0389   6.0842  10.2714  11.5144

     occupation numbers 
     1.0000   0.0000   0.0000   0.0000   0.0000

          k = 0.1958 0.3916 0.4895 (  1107 PWs)   bands (ev):

     1.3448   3.8874   6.6024   9.0730  12.0745

     occupation numbers 
     1.0000   0.0000   0.0000   0.0000   0.0000

          k = 0.1958 0.3916-0.5874 (  1108 PWs)   bands (ev):

     2.3944   2.6751   7.4276   8.0504  13.0933

     occupation numbers 
     0.5134   0.0454   0.0000   0.0000   0.0000

          k = 0.1958 0.4895 0.4895 (  1106 PWs)   bands (ev):

     2.3120   4.4269   5.4642   7.5856  12.8787

     occupation numbers 
     0.7389   0.0000   0.0000   0.0000   0.0000

          k = 0.1958 0.4895-0.5874 (  1108 PWs)   bands (ev):

     3.3543   3.5610   5.9763   6.5130  13.8061

     occupation numbers 
     0.0000   0.0000   0.0000   0.0000   0.0000

          k = 0.1958-0.5874-0.5874 (  1120 PWs)   bands (ev):

     4.2230   4.2230   4.9370   5.6336  14.3390

     occupation numbers 
     0.0000   0.0000   0.0000   0.0000   0.0000

          k = 0.2937 0.2937 0.2937 (  1126 PWs)   bands (ev):

    -0.6301   6.5653   6.5653   8.7090  14.2559

     occupation numbers 
     1.0000   0.0000   0.0000   0.0000   0.0000

          k = 0.2937 0.2937 0.3916 (  1115 PWs)   bands (ev):

     0.1448   5.2019   7.2619   9.0196  12.5148

     occupation numbers 
     1.0000   0.0000   0.0000   0.0000   0.0000

          k = 0.2937 0.2937 0.4895 (  1114 PWs)   bands (ev):

     1.1279   3.7053   8.1055   9.8228  11.0411

     occupation numbers 
     1.0000   0.0000   0.0000   0.0000   0.0000

          k = 0.2937 0.2937-0.5874 (  1106 PWs)   bands (ev):

     2.1766   2.4740   8.7114  10.2248  10.5408

     occupation numbers 
     1.0131   0.3131   0.0000   0.0000   0.0000

          k = 0.2937 0.3916 0.3916 (  1112 PWs)   bands (ev):

     0.9135   5.5468   6.4294   9.1345  11.2574

     occupation numbers 
     1.0000   0.0000   0.0000   0.0000   0.0000

          k = 0.2937 0.3916 0.4895 (  1102 PWs)   bands (ev):

     1.8879   4.4021   6.9990   9.3250  10.4003

     occupation numbers 
     1.0396   0.0000   0.0000   0.0000   0.0000

          k = 0.2937 0.3916-0.5874 (  1106 PWs)   bands (ev):

     2.9372   3.1964   7.7406   8.5655  11.3679

     occupation numbers 
     0.0008   0.0000   0.0000   0.0000   0.0000

          k = 0.2937 0.4895 0.4895 (  1103 PWs)   bands (ev):

     2.8473   4.9358   5.9447   8.0495  10.9797

     occupation numbers 
     0.0038   0.0000   0.0000   0.0000   0.0000

          k = 0.2937 0.4895-0.5874 (  1096 PWs)   bands (ev):

     3.8827   4.0782   6.4318   7.0374  11.9195

     occupation numbers 
     0.0000   0.0000   0.0000   0.0000   0.0000

          k = 0.2937-0.5874-0.5874 (  1104 PWs)   bands (ev):

     4.7321   4.7321   5.4370   6.1671  12.3673

     occupation numbers 
     0.0000   0.0000   0.0000   0.0000   0.0000

          k = 0.3916 0.3916 0.3916 (  1112 PWs)   bands (ev):

     1.6753   6.2492   6.2492   8.3374  11.4563

     occupation numbers 
     1.0035   0.0000   0.0000   0.0000   0.0000

          k = 0.3916 0.3916 0.4895 (  1099 PWs)   bands (ev):

     2.6397   5.0941   7.1103   8.8190   9.9609

     occupation numbers 
     0.0686   0.0000   0.0000   0.0000   0.0000

          k = 0.3916 0.3916-0.5874 (  1102 PWs)   bands (ev):

     3.6830   3.9157   7.7590   9.1005   9.4688

     occupation numbers 
     0.0000   0.0000   0.0000   0.0000   0.0000

          k = 0.3916 0.4895 0.4895 (  1102 PWs)   bands (ev):

     3.5869   5.6411   6.4847   8.5505   9.4843

     occupation numbers 
     0.0000   0.0000   0.0000   0.0000   0.0000

          k = 0.3916 0.4895-0.5874 (  1096 PWs)   bands (ev):

     4.6071   4.7922   6.9592   7.7445  10.1119

     occupation numbers 
     0.0000   0.0000   0.0000   0.0000   0.0000

          k = 0.3916-0.5874-0.5874 (  1104 PWs)   bands (ev):

     5.4384   5.4384   6.0687   6.8867  10.6060

     occupation numbers 
     0.0000   0.0000   0.0000   0.0000   0.0000

          k = 0.4895 0.4895 0.4895 (  1094 PWs)   bands (ev):

     4.5136   6.5118   6.5118   8.4713   9.3127

     occupation numbers 
     0.0000   0.0000   0.0000   0.0000   0.0000

          k = 0.4895 0.4895-0.5874 (  1084 PWs)   bands (ev):

     5.4980   5.6639   7.1882   8.4243   8.7376

     occupation numbers 
     0.0000   0.0000   0.0000   0.0000   0.0000

          k = 0.4895-0.5874-0.5874 (  1080 PWs)   bands (ev):

     6.3122   6.3122   6.6965   7.7060   9.0968

     occupation numbers 
     0.0000   0.0000   0.0000   0.0000   0.0000

          k =-0.5874-0.5874-0.5874 (  1088 PWs)   bands (ev):

     6.9982   6.9982   6.9982   8.1986  10.7031

     occupation numbers 
     0.0000   0.0000   0.0000   0.0000   0.0000

     the Fermi energy is     2.4372 ev

!    total energy              =     -33.58888279 Ry
     total all-electron energy =      -400.643090 Ry
     estimated scf accuracy    <          1.6E-09 Ry
     smearing contrib. (-TS)   =       0.00009342 Ry
     internal energy E=F+TS    =     -33.58897621 Ry

     The total energy is F=E-TS. E is the sum of the following terms:
     one-electron contribution =       1.23958108 Ry
     hartree contribution      =       0.00473705 Ry
     xc contribution           =      -1.54913444 Ry
     ewald contribution        =      -1.98744608 Ry
     one-center paw contrib.   =     -31.29671383 Ry
      -> PAW hartree energy AE =       0.74263233 Ry
      -> PAW hartree energy PS =      -0.74069709 Ry
      -> PAW xc energy AE      =     -32.58681608 Ry
      -> PAW xc energy PS      =       1.28816701 Ry
      -> total E_H with PAW    =       0.00667230 Ry
      -> total E_XC with PAW   =     -32.84778351 Ry

     convergence has been achieved in   5 iterations

     Forces acting on atoms (cartesian axes, Ry/au):

     atom    1 type  1   force =     0.00000000    0.00000000    0.00000000
     The non-local contrib.  to forces
     atom    1 type  1   force =     0.00000000    0.00000000    0.00000000
     The ionic contribution  to forces
     atom    1 type  1   force =    -0.00000000   -0.00000000   -0.00000000
     The local contribution  to forces
     atom    1 type  1   force =     0.00000000   -0.00000000   -0.00000000
     The core correction contribution to forces
     atom    1 type  1   force =    -0.00000000    0.00000000    0.00000000
     The Hubbard contrib.    to forces
     atom    1 type  1   force =     0.00000000    0.00000000    0.00000000
     The SCF correction term to forces
     atom    1 type  1   force =    -0.00000000    0.00000000   -0.00000000

     Total force =     0.000000     Total SCF correction =     0.000000


     Computing stress (Cartesian axis) and pressure

          total   stress  (Ry/bohr**3)                   (kbar)     P=       -0.35
  -0.00000239   0.00000000   0.00000000           -0.35        0.00        0.00
   0.00000000  -0.00000239   0.00000000            0.00       -0.35        0.00
   0.00000000   0.00000000  -0.00000239            0.00        0.00       -0.35

     kinetic stress (kbar)    325.89      0.00      0.00
                                0.00    325.89      0.00
                                0.00      0.00    325.89

     local   stress (kbar)    -18.99      0.00     -0.00
                                0.00    -18.99     -0.00
                               -0.00     -0.00    -18.99

     nonloc. stress (kbar)    462.10      0.00      0.00
                                0.00    462.10      0.00
                                0.00      0.00    462.10

     hartree stress (kbar)      1.25      0.00     -0.00
                                0.00      1.25     -0.00
                               -0.00     -0.00      1.25

     exc-cor stress (kbar)    331.48      0.00     -0.00
                                0.00    331.48     -0.00
                               -0.00     -0.00    331.48

     corecor stress (kbar)   -578.72      0.00      0.00
                                0.00   -578.72     -0.00
                                0.00     -0.00   -578.72

     ewald   stress (kbar)   -523.35     -0.00     -0.00
                               -0.00   -523.35     -0.00
                               -0.00     -0.00   -523.35

     hubbard stress (kbar)      0.00      0.00      0.00
                                0.00      0.00      0.00
                                0.00      0.00      0.00

     DFT-D   stress (kbar)      0.00      0.00      0.00
                                0.00      0.00      0.00
                                0.00      0.00      0.00

     XDM     stress (kbar)      0.00      0.00      0.00
                                0.00      0.00      0.00
                                0.00      0.00      0.00

     dft-nl  stress (kbar)      0.00      0.00      0.00
                                0.00      0.00      0.00
                                0.00      0.00      0.00

     TS-vdW  stress (kbar)      0.00      0.00      0.00
                                0.00      0.00      0.00
                                0.00      0.00      0.00

     MDB     stress (kbar)      0.00      0.00      0.00
                                0.00      0.00      0.00
                                0.00      0.00      0.00

     3D-RISM stress (kbar)      0.00      0.00      0.00
                                0.00      0.00      0.00
                                0.00      0.00      0.00


     Writing all to output data dir ./tmp/Mg_vc-relax.save/

     init_run     :     16.10s CPU      4.89s WALL (       2 calls)
     electrons    :    731.10s CPU     75.36s WALL (      10 calls)
     update_pot   :     20.58s CPU     14.68s WALL (       8 calls)
     forces       :     15.26s CPU      9.36s WALL (      10 calls)
     stress       :     50.64s CPU     29.91s WALL (      10 calls)

     Called by init_run:
     wfcinit      :     11.91s CPU      1.31s WALL (       2 calls)
     wfcinit:atom :      0.53s CPU      0.05s WALL (     168 calls)
     wfcinit:wfcr :     10.46s CPU      1.18s WALL (     168 calls)
     potinit      :      1.15s CPU      1.15s WALL (       2 calls)
     hinit0       :      2.49s CPU      2.29s WALL (       2 calls)

     Called by electrons:
     c_bands      :    639.44s CPU     63.54s WALL (      40 calls)
     sum_band     :     55.58s CPU      7.23s WALL (      40 calls)
     v_of_rho     :     21.11s CPU      2.51s WALL (      49 calls)
     v_h          :      0.89s CPU      0.11s WALL (      49 calls)
     v_xc         :     21.77s CPU      3.01s WALL (      69 calls)
     newd         :      1.73s CPU      0.71s WALL (      49 calls)
     PAW_pot      :     12.14s CPU      1.97s WALL (      57 calls)
     mix_rho      :      1.90s CPU      0.19s WALL (      40 calls)

     Called by c_bands:
     init_us_2    :     23.37s CPU      2.91s WALL (    9240 calls)
     init_us_2:cp :     22.78s CPU      2.85s WALL (    9240 calls)
     cegterg      :    608.98s CPU     60.65s WALL (    3360 calls)

     Called by sum_band:
     sum_band:wei :      0.29s CPU      0.03s WALL (      40 calls)
     sum_band:loo :     45.39s CPU      6.02s WALL (      40 calls)
     sum_band:buf :      0.68s CPU      0.10s WALL (    3360 calls)
     sum_band:ini :      7.91s CPU      1.06s WALL (    3360 calls)
     sum_band:cal :      5.94s CPU      0.81s WALL (    4032 calls)
     sum_band:bec :      0.16s CPU      0.02s WALL (    4032 calls)
     addusdens    :      7.18s CPU      0.88s WALL (      40 calls)
                                        0.00s GPU  (      40 calls)
     addusd:skk   :      0.01s CPU      0.01s WALL (      40 calls)
                                        0.00s GPU  (      40 calls)

     Called by *egterg:
     cdiaghg      :     10.26s CPU      0.97s WALL (   13417 calls)
     cegterg:over :     20.96s CPU      1.93s WALL (   10813 calls)
     cegterg:upda :     29.56s CPU      2.80s WALL (   10813 calls)
     cegterg:last :     61.74s CPU      6.19s WALL (    8040 calls)
     h_psi        :    425.09s CPU     42.73s WALL (   14341 calls)
     s_psi        :     42.97s CPU      4.57s WALL (   14341 calls)
     g_psi        :      4.88s CPU      0.44s WALL (   10813 calls)

     Called by h_psi:
     h_psi:calbec :     76.04s CPU      8.84s WALL (   14341 calls)
     vloc_psi     :    286.48s CPU     27.78s WALL (   14341 calls)
     add_vuspsi   :     55.89s CPU      5.50s WALL (   14341 calls)

     General routines
     calbec       :     81.59s CPU      9.81s WALL (   22573 calls)
     fft          :      9.07s CPU      1.64s WALL (     876 calls)
     ffts         :      0.20s CPU      0.19s WALL (      89 calls)
     fftw         :    220.71s CPU     22.00s WALL (  119078 calls)
     interpolate  :      0.24s CPU      0.25s WALL (      49 calls)

     Parallel routines

     PAW routines
     PAW_pot      :     12.14s CPU      1.97s WALL (      57 calls)
     PAW_symme    :      0.01s CPU      0.00s WALL (      97 calls)

     PWSCF        :  13m56.87s CPU   2m15.11s WALL


   This run was terminated on:   9:24: 4   5Nov2023            

=------------------------------------------------------------------------------=
   JOB DONE.
=------------------------------------------------------------------------------=
